Program Version,EnergyPlus, Version 23.2.0-7636e6b3e9, YMD=2025.10.15 16:26
1,5,Environment Title[],Latitude[deg],Longitude[deg],Time Zone[],Elevation[m]
2,8,Day of Simulation[],Month[],Day of Month[],DST Indicator[1=yes 0=no],Hour[],StartMinute[],EndMinute[],DayType
3,5,Cumulative Day of Simulation[],Month[],Day of Month[],DST Indicator[1=yes 0=no],DayType  ! When Daily Meters Requested
4,2,Cumulative Days of Simulation[],Month[]  ! When Monthly Meters Requested
5,1,Cumulative Days of Simulation[] ! When Run Period Meters Requested
6,1,Calendar Year of Simulation[] ! When Annual Meters Requested
14674,1,Baseboard:PlantLoopHeatingDemand [J] !Hourly
14724,1,HeatingCoils:PlantLoopHeatingDemand [J] !Hourly
14875,1,CoolingCoils:EnergyTransfer [J] !Hourly
14711,1,HeatingCoils:EnergyTransfer [J] !Hourly
15063,1,Electricity:HVAC [J] !Hourly
15305,1,Electricity:Plant [J] !Hourly
14637,1,Baseboard:EnergyTransfer [J] !Hourly
9,1,Electricity:Facility [J] !Hourly
14429,1,DistrictHeatingWater:Facility [J] !Hourly
15185,1,DistrictCooling:Facility [J] !Hourly
15317,1,Cooling:Electricity [J] !Hourly
End of Data Dictionary
1,EDINBURGH.AP ANN CLG .4% CONDNS DB=>MWB HVAC Sizing Pass 1,  55.95,  -3.37,   0.00,  41.10
2,1, 7,21, 0, 1, 0.00,60.00,SummerDesignDay
9,40456820.89322955
14429,0.0
14637,0.0
14674,0.0
14711,0.0
14724,0.0
14875,1793688.584195794
15063,258042.04819203424
15185,0.0
15305,20225392.991154585
15317,2404766.3313204665
2,1, 7,21, 0, 2, 0.00,60.00,SummerDesignDay
9,40349337.441484556
14429,0.0
14637,0.0
14674,0.0
14711,0.0
14724,0.0
14875,1613544.6277243113
15063,230944.21902864054
15185,0.0
15305,20145007.368572984
15317,2324406.3230102896
2,1, 7,21, 0, 3, 0.00,60.00,SummerDesignDay
9,40243451.425897054
14429,0.0
14637,0.0
14674,0.0
14711,0.0
14724,0.0
14875,1446715.1469343752
15063,204964.56556713753
15185,0.0
15305,20065101.006446987
15317,2244525.0389934448
2,1, 7,21, 0, 4, 0.00,60.00,SummerDesignDay
9,40166065.60417029
14429,79310.73958678119
14637,311810.837603471
14674,311810.837603471
14711,0.0
14724,0.0
14875,1282198.1427190267
15063,167630.75240022555
15185,0.0
15305,20025048.997887135
15317,2204189.5649691243
2,1, 7,21, 0, 5, 0.00,60.00,SummerDesignDay
9,40086431.17323806
14429,2111755.371047809
14637,7300844.153155378
14674,7300844.153155378
14711,9365.468333575132
14724,9365.468333575132
14875,1139158.9506887402
15063,135122.78812494842
15185,0.0
15305,19977922.53123019
15317,2149927.7896969384
2,1, 7,21, 0, 6, 0.00,60.00,SummerDesignDay
9,40010050.270630434
14429,3309825.566991465
14637,10262695.218132272
14674,10262695.218132272
14711,28631.137365943836
14724,28631.137365943836
14875,1042044.624519049
15063,129498.93382537541
15185,0.0
15305,19907165.48292213
15317,2075727.4313314515
2,1, 7,21, 0, 7, 0.00,60.00,SummerDesignDay
9,60730244.24914667
14429,2121213.3400454503
14637,5257421.383613639
14674,5257421.383613639
14711,41227.24996484058
14724,41227.24996484058
14875,956568.2047387405
15063,123021.0203542221
15185,0.0
15305,19834180.295676228
15317,2007048.7315220311
2,1, 7,21, 0, 8, 0.00,60.00,SummerDesignDay
9,517597363.00720084
14429,549793.3139524881
14637,0.0
14674,0.0
14711,37909.885204790815
14724,37909.885204790815
14875,935939.1424519497
15063,121088.35630196692
15185,0.0
15305,19803922.94145885
15317,1981727.213929163
2,1, 7,21, 0, 9, 0.00,60.00,SummerDesignDay
9,598709772.1501601
14429,219886.26573842927
14637,0.0
14674,0.0
14711,13280.211027406174
14724,13280.211027406174
14875,48380510.59778063
15063,59054116.795494705
15185,0.0
15305,39588393.67255115
15317,20822276.2479863
2,1, 7,21, 0,10, 0.00,60.00,SummerDesignDay
9,619089242.5439012
14429,0.0
14637,0.0
14674,0.0
14711,0.0
14724,0.0
14875,61565990.38524756
15063,58684011.479963504
15185,0.0
15305,48008794.72407274
15317,28042689.754192527
2,1, 7,21, 0,11, 0.00,60.00,SummerDesignDay
9,664991039.5416181
14429,0.0
14637,0.0
14674,0.0
14711,0.0
14724,0.0
14875,153415608.2520297
15063,58495989.26813901
15185,0.0
15305,91657450.3348583
15317,70264411.55221017
2,1, 7,21, 0,12, 0.00,60.00,SummerDesignDay
9,709916736.8507849
14429,0.0
14637,0.0
14674,0.0
14711,0.0
14724,0.0
14875,233604527.39752844
15063,58360517.18077101
15185,0.0
15305,118313872.62483421
15317,96062522.71080524
2,1, 7,21, 0,13, 0.00,60.00,SummerDesignDay
9,709629397.5314282
14429,0.0
14637,0.0
14674,0.0
14711,0.0
14724,0.0
14875,272530941.8345997
15063,57471965.309548035
15185,0.0
15305,118915085.17670035
15317,96734961.34686744
2,1, 7,21, 0,14, 0.00,60.00,SummerDesignDay
9,710835524.1745194
14429,0.0
14637,0.0
14674,0.0
14711,0.0
14724,0.0
14875,313409701.32540953
15063,58095415.00074455
15185,0.0
15305,119497762.12859514
15317,97314347.6008862
2,1, 7,21, 0,15, 0.00,60.00,SummerDesignDay
9,714227257.9527165
14429,0.0
14637,0.0
14674,0.0
14711,0.0
14724,0.0
14875,377353123.31658125
15063,60192193.02912526
15185,0.0
15305,123187627.8510855
15317,100551032.58243617
2,1, 7,21, 0,16, 0.00,60.00,SummerDesignDay
9,688269468.3251649
14429,0.0
14637,0.0
14674,0.0
14711,0.0
14724,0.0
14875,369268669.89318174
15063,60926392.053291254
15185,0.0
15305,122131369.85003132
15317,99503649.062166
2,1, 7,21, 0,17, 0.00,60.00,SummerDesignDay
9,704229241.829024
14429,0.0
14637,0.0
14674,0.0
14711,58.11751050699921
14724,58.11751050699921
14875,330120184.26215106
15063,61384130.72867507
15185,0.0
15305,119228657.57194747
15317,96799672.97398183
2,1, 7,21, 0,18, 0.00,60.00,SummerDesignDay
9,675295844.5702978
14429,0.0
14637,0.0
14674,0.0
14711,0.0
14724,0.0
14875,225863896.8819525
15063,59359830.051343195
15185,0.0
15305,118263662.80951464
15317,95907320.93503441
2,1, 7,21, 0,19, 0.00,60.00,SummerDesignDay
9,644005272.4619511
14429,0.0
14637,0.0
14674,0.0
14711,0.0
14724,0.0
14875,134066365.22036007
15063,59265733.77084751
15185,0.0
15305,84672277.00898945
15317,63436350.48054427
2,1, 7,21, 0,20, 0.00,60.00,SummerDesignDay
9,388988072.54840845
14429,0.0
14637,0.0
14674,0.0
14711,0.0
14724,0.0
14875,2915676.41470976
15063,434111.6516516554
15185,0.0
15305,21008198.990099296
15317,3113216.5805968274
2,1, 7,21, 0,21, 0.00,60.00,SummerDesignDay
9,69076813.48845303
14429,0.0
14637,0.0
14674,0.0
14711,0.0
14724,0.0
14875,2575517.7583589028
15063,351004.8132276701
15185,0.0
15305,20768035.82408659
15317,2947271.773603631
2,1, 7,21, 0,22, 0.00,60.00,SummerDesignDay
9,50542634.28789388
14429,0.0
14637,0.0
14674,0.0
14711,0.0
14724,0.0
14875,2413946.0495391944
15063,316432.23062863766
15185,0.0
15305,20673176.312685523
15317,2852404.025208006
2,1, 7,21, 0,23, 0.00,60.00,SummerDesignDay
9,47959372.72933474
14429,0.0
14637,0.0
14674,0.0
14711,0.0
14724,0.0
14875,2190476.6907865964
15063,294649.45980463375
15185,0.0
15305,20506607.497624602
15317,2685879.0512570483
2,1, 7,21, 0,24, 0.00,60.00,SummerDesignDay
9,42997052.905077755
14429,0.0
14637,0.0
14674,0.0
14711,0.0
14724,0.0
14875,1988141.699196547
15063,276430.2881185597
15185,0.0
15305,20352326.790402062
15317,2531649.840328552
1,EDINBURGH.AP ANN CLG .4% CONDNS DP=>MDB HVAC Sizing Pass 1,  55.95,  -3.37,   0.00,  41.10
2,1, 7,21, 0, 1, 0.00,60.00,SummerDesignDay
9,40233548.37030374
14429,0.0
14637,0.0
14674,0.0
14711,0.0
14724,0.0
14875,1315641.325103802
15063,164782.66678871858
15185,0.0
15305,20095379.84963209
15317,2274779.594503643
2,1, 7,21, 0, 2, 0.00,60.00,SummerDesignDay
9,40107773.550101995
14429,91702.26524792572
14637,0.0
14674,0.0
14711,1861.186623999753
14724,1861.186623999753
14875,1163324.7818343036
15063,136038.12780312332
15185,0.0
15305,19998349.56841594
15317,2177585.5358240497
2,1, 7,21, 0, 3, 0.00,60.00,SummerDesignDay
9,40011636.09344378
14429,2936595.2977820295
14637,5268807.96892038
14674,5268807.96892038
14711,19282.427310612577
14724,19282.427310612577
14875,1059702.6208424352
15063,130017.92234461526
15185,0.0
15305,19908232.317216232
15317,2081726.829783638
2,1, 7,21, 0, 4, 0.00,60.00,SummerDesignDay
9,39944734.36556979
14429,6678793.495118703
14637,12528666.783941627
14674,12528666.783941627
14711,39817.51138119926
14724,39817.51138119926
14875,964235.4658736284
15063,123655.99513745662
15185,0.0
15305,19847692.5165494
15317,2013973.7286527827
2,1, 7,21, 0, 5, 0.00,60.00,SummerDesignDay
9,39882772.796146184
14429,9888435.274656381
14637,18107685.262269884
14674,18107685.262269884
14711,57676.844027686326
14724,57676.844027686326
14875,871250.2094327946
15063,116059.52727343728
15185,0.0
15305,19793327.414989818
15317,1954130.4166555596
2,1, 7,21, 0, 6, 0.00,60.00,SummerDesignDay
9,39805489.060805514
14429,11675037.287030041
14637,20065714.29689538
14674,20065714.29689538
14711,77312.44394140567
14724,77312.44394140567
14875,784019.8676162442
15063,107420.84015990535
15185,0.0
15305,19724682.366762675
15317,1883214.3805881708
2,1, 7,21, 0, 7, 0.00,60.00,SummerDesignDay
9,60566390.46475714
14429,10692606.480625365
14637,16319398.212595455
14674,16319398.212595455
14711,101960.73222286825
14724,101960.73222286825
14875,718978.6316497828
15063,104719.21675431292
15185,0.0
15305,19688628.314886604
15317,1849710.605210904
2,1, 7,21, 0, 8, 0.00,60.00,SummerDesignDay
9,517431074.3860674
14429,2448014.303175062
14637,898596.6663020204
14674,898596.6663020204
14711,98515.87063637498
14724,98515.87063637498
14875,691298.2333582018
15063,101653.26952147308
15185,0.0
15305,19657069.4071059
15317,1832485.2631276639
2,1, 7,21, 0, 9, 0.00,60.00,SummerDesignDay
9,592908633.5887189
14429,1293489.4588956223
14637,0.0
14674,0.0
14711,71861.40049485829
14724,71861.40049485829
14875,36284333.855103165
15063,58161524.9618259
15185,0.0
15305,34679846.94477872
15317,16529654.2435571
2,1, 7,21, 0,10, 0.00,60.00,SummerDesignDay
9,614718210.0569429
14429,821447.439445953
14637,0.0
14674,0.0
14711,29916.327424857718
14724,29916.327424857718
14875,49294291.53683412
15063,58733851.799031004
15185,0.0
15305,43587921.91804715
15317,23843597.677886963
2,1, 7,21, 0,11, 0.00,60.00,SummerDesignDay
9,620997818.3391169
14429,122731.82405910414
14637,0.0
14674,0.0
14711,2507.49541312087
14724,2507.49541312087
14875,55792380.7666103
15063,58973417.11863209
15185,0.0
15305,47186801.281863995
15317,27083213.08537917
2,1, 7,21, 0,12, 0.00,60.00,SummerDesignDay
9,656490043.2198296
14429,0.0
14637,0.0
14674,0.0
14711,0.0
14724,0.0
14875,93107578.05120543
15063,59008098.44665385
15185,0.0
15305,64239597.72799589
15317,43893928.21207866
2,1, 7,21, 0,13, 0.00,60.00,SummerDesignDay
9,682322051.2365359
14429,0.0
14637,0.0
14674,0.0
14711,0.0
14724,0.0
14875,146701318.65081388
15063,58001185.899898306
15185,0.0
15305,91078518.2914579
15317,70122250.7105317
2,1, 7,21, 0,14, 0.00,60.00,SummerDesignDay
9,711109609.3943151
14429,0.0
14637,0.0
14674,0.0
14711,0.0
14724,0.0
14875,218413866.11165422
15063,58197396.86064547
15185,0.0
15305,119669865.48848987
15317,97882081.83556096
2,1, 7,21, 0,15, 0.00,60.00,SummerDesignDay
9,711209669.7267327
14429,0.0
14637,0.0
14674,0.0
14711,0.0
14724,0.0
14875,271327967.9056112
15063,59999893.22485918
15185,0.0
15305,120362339.42936781
15317,98497297.34420562
2,1, 7,21, 0,16, 0.00,60.00,SummerDesignDay
9,686528435.8513027
14429,0.0
14637,0.0
14674,0.0
14711,0.0
14724,0.0
14875,255977806.70192462
15063,61093336.40394079
15185,0.0
15305,120223393.02551958
15317,98318887.85749096
2,1, 7,21, 0,17, 0.00,60.00,SummerDesignDay
9,704008144.8674431
14429,0.0
14637,0.0
14674,0.0
14711,2669.1378021883656
14724,2669.1378021883656
14875,209302034.0600603
15063,62485149.76812143
15185,0.0
15305,117906541.57092033
15317,96014917.70741445
2,1, 7,21, 0,18, 0.00,60.00,SummerDesignDay
9,625299499.8419496
14429,0.0
14637,0.0
14674,0.0
14711,106.21520495003278
14724,106.21520495003278
14875,94407235.47190745
15063,60208519.53600302
15185,0.0
15305,67418628.59650657
15317,46945752.53907202
2,1, 7,21, 0,19, 0.00,60.00,SummerDesignDay
9,610972088.0248561
14429,0.0
14637,0.0
14674,0.0
14711,1365.0021810500969
14724,1365.0021810500969
14875,62856483.889312774
15063,59752269.01421358
15185,0.0
15305,51152557.32852831
15317,30926148.624956254
2,1, 7,21, 0,20, 0.00,60.00,SummerDesignDay
9,388557532.4006805
14429,0.0
14637,0.0
14674,0.0
14711,0.0
14724,0.0
14875,2402812.5091468445
15063,324169.32354665705
15185,0.0
15305,20687601.170476366
15317,2790473.5082072862
2,1, 7,21, 0,21, 0.00,60.00,SummerDesignDay
9,68767231.62985569
14429,0.0
14637,0.0
14674,0.0
14711,0.0
14724,0.0
14875,2184211.619970736
15063,287440.70530427044
15185,0.0
15305,20522018.073412664
15317,2701297.4076772397
2,1, 7,21, 0,22, 0.00,60.00,SummerDesignDay
9,50166010.51864422
14429,0.0
14637,0.0
14674,0.0
14711,0.0
14724,0.0
14875,1924859.662167233
15063,266597.6812907975
15185,0.0
15305,20346387.09277371
15317,2525726.375789374
2,1, 7,21, 0,23, 0.00,60.00,SummerDesignDay
9,47641069.83294521
14429,0.0
14637,0.0
14674,0.0
14711,0.0
14724,0.0
14875,1697897.682863439
15063,230714.24257073234
15185,0.0
15305,20252239.818468973
15317,2431599.9042263785
2,1, 7,21, 0,24, 0.00,60.00,SummerDesignDay
9,42709081.884329736
14429,0.0
14637,0.0
14674,0.0
14711,0.0
14724,0.0
14875,1511769.5160332494
15063,210477.23528416653
15185,0.0
15305,20130308.822488442
15317,2309712.564017959
1,EDINBURGH.AP ANN CLG .4% CONDNS ENTH=>MDB HVAC Sizing Pass 1,  55.95,  -3.37,   0.00,  41.10
2,1, 7,21, 0, 1, 0.00,60.00,SummerDesignDay
9,40596023.69151847
14429,0.0
14637,0.0
14674,0.0
14711,0.0
14724,0.0
14875,2014136.196887492
15063,277551.4977219569
15185,0.0
15305,20345086.339913584
15317,2524407.3822765555
2,1, 7,21, 0, 2, 0.00,60.00,SummerDesignDay
9,40472497.750210874
14429,0.0
14637,0.0
14674,0.0
14711,0.0
14724,0.0
14875,1855916.4830439477
15063,262847.1933285498
15185,0.0
15305,20236264.70299939
15317,2415625.117378232
2,1, 7,21, 0, 3, 0.00,60.00,SummerDesignDay
9,40372755.50223681
14429,0.0
14637,0.0
14674,0.0
14711,0.0
14724,0.0
14875,1708727.3789669485
15063,248692.1186828374
15185,0.0
15305,20150677.529671047
15317,2330075.021753706
2,1, 7,21, 0, 4, 0.00,60.00,SummerDesignDay
9,40304976.364349544
14429,0.0
14637,0.0
14674,0.0
14711,0.0
14724,0.0
14875,1548417.1531088282
15063,213981.73356911118
15185,0.0
15305,20117608.77689751
15317,2297004.833834597
2,1, 7,21, 0, 5, 0.00,60.00,SummerDesignDay
9,40212168.446138434
14429,0.0
14637,0.0
14674,0.0
14711,0.0
14724,0.0
14875,1421394.3358295653
15063,201494.4336525076
15185,0.0
15305,20037288.158602998
15317,2216719.831138965
2,1, 7,21, 0, 6, 0.00,60.00,SummerDesignDay
9,40171011.08452464
14429,0.0
14637,0.0
14674,0.0
14711,0.0
14724,0.0
14875,1266444.4866686724
15063,152953.37636988767
15185,0.0
15305,20044671.85427182
15317,2224073.460414561
2,1, 7,21, 0, 7, 0.00,60.00,SummerDesignDay
9,60873646.57646343
14429,0.0
14637,0.0
14674,0.0
14711,0.0
14724,0.0
14875,1158181.859800962
15063,135183.43520290696
15185,0.0
15305,19965420.2081443
15317,2144844.9790598117
2,1, 7,21, 0, 8, 0.00,60.00,SummerDesignDay
9,517737521.43203205
14429,0.0
14637,0.0
14674,0.0
14711,0.0
14724,0.0
14875,1150674.3617325807
15063,134374.06896818388
15185,0.0
15305,19930795.65362378
15317,2110223.527608708
2,1, 7,21, 0, 9, 0.00,60.00,SummerDesignDay
9,607913013.6265489
14429,0.0
14637,0.0
14674,0.0
14711,14410.629467768094
14724,14410.629467768094
14875,72848878.76606254
15063,60537645.43297015
15185,0.0
15305,47308106.51146431
15317,28074504.577309497
2,1, 7,21, 0,10, 0.00,60.00,SummerDesignDay
9,632623761.5692358
14429,0.0
14637,0.0
14674,0.0
14711,0.0
14724,0.0
14875,85972492.55278577
15063,59662914.50106108
15185,0.0
15305,60564410.72830977
15317,40228060.22057007
2,1, 7,21, 0,11, 0.00,60.00,SummerDesignDay
9,675426149.5582309
14429,0.0
14637,0.0
14674,0.0
14711,0.0
14724,0.0
14875,176383357.12707764
15063,59682349.94027822
15185,0.0
15305,100906199.67933197
15317,79603079.78164452
2,1, 7,21, 0,12, 0.00,60.00,SummerDesignDay
9,713146608.3453063
14429,0.0
14637,0.0
14674,0.0
14711,0.0
14724,0.0
14875,298006953.80378205
15063,59699321.42264383
15185,0.0
15305,120204939.87748274
15317,98285732.93525225
2,1, 7,21, 0,13, 0.00,60.00,SummerDesignDay
9,714279620.5892022
14429,0.0
14637,0.0
14674,0.0
14711,0.0
14724,0.0
14875,355403783.5477735
15063,58449419.39772026
15185,0.0
15305,122587854.14630203
15317,100504297.52892283
2,1, 7,21, 0,14, 0.00,60.00,SummerDesignDay
9,720541614.5023358
14429,0.0
14637,0.0
14674,0.0
14711,0.0
14724,0.0
14875,413276474.1534369
15063,58581429.41805524
15185,0.0
15305,128717838.03910068
15317,106064200.9322736
2,1, 7,21, 0,15, 0.00,60.00,SummerDesignDay
9,725847419.6578861
14429,0.0
14637,0.0
14674,0.0
14711,0.0
14724,0.0
14875,464041721.9220251
15063,60516982.07321975
15185,0.0
15305,134483000.5121607
15317,111198538.85311891
2,1, 7,21, 0,16, 0.00,60.00,SummerDesignDay
9,699212613.6472429
14429,0.0
14637,0.0
14674,0.0
14711,0.0
14724,0.0
14875,448517727.4674405
15063,61528270.37829541
15185,0.0
15305,132472636.84710507
15317,109332576.8911989
2,1, 7,21, 0,17, 0.00,60.00,SummerDesignDay
9,713324818.3527409
14429,0.0
14637,0.0
14674,0.0
14711,297.8295691414395
14724,297.8295691414395
14875,402541859.38391626
15063,62618561.2694079
15185,0.0
15305,127089803.55493164
15317,104420620.40275836
2,1, 7,21, 0,18, 0.00,60.00,SummerDesignDay
9,678176215.5953534
14429,0.0
14637,0.0
14674,0.0
14711,2792.1806040809133
14724,2792.1806040809133
14875,274659121.9760053
15063,60368547.69203202
15185,0.0
15305,120135316.19388115
15317,98163178.55702032
2,1, 7,21, 0,19, 0.00,60.00,SummerDesignDay
9,653097745.1867837
14429,0.0
14637,0.0
14674,0.0
14711,776.4874918184619
14724,776.4874918184619
14875,146972917.0895836
15063,59857061.33745169
15185,0.0
15305,93173422.16721757
15317,71993055.88220082
2,1, 7,21, 0,20, 0.00,60.00,SummerDesignDay
9,389257244.89584726
14429,0.0
14637,0.0
14674,0.0
14711,0.0
14724,0.0
14875,3109018.8705008356
15063,467932.128521099
15185,0.0
15305,21243550.86066865
15317,3346700.317235462
2,1, 7,21, 0,21, 0.00,60.00,SummerDesignDay
9,69301975.64997414
14429,0.0
14637,0.0
14674,0.0
14711,0.0
14724,0.0
14875,2797370.1059903717
15063,401279.5381141087
15185,0.0
15305,20942923.26072127
15317,3122149.198428876
2,1, 7,21, 0,22, 0.00,60.00,SummerDesignDay
9,50686850.8632683
14429,0.0
14637,0.0
14674,0.0
14711,0.0
14724,0.0
14875,2576538.8906267607
15063,339881.5523657807
15185,0.0
15305,20793943.566322815
15317,2973169.189081727
2,1, 7,21, 0,23, 0.00,60.00,SummerDesignDay
9,48125978.38195659
14429,0.0
14637,0.0
14674,0.0
14711,0.0
14724,0.0
14875,2410645.7215979127
15063,311660.83795658883
15185,0.0
15305,20656201.772094496
15317,2835428.487535292
2,1, 7,21, 0,24, 0.00,60.00,SummerDesignDay
9,43149255.29703033
14429,0.0
14637,0.0
14674,0.0
14711,0.0
14724,0.0
14875,2211366.56423486
15063,295234.66266994405
15185,0.0
15305,20485724.807803255
15317,2664997.986402246
1,EDINBURGH.AP ANN CLG .4% CONDNS WB=>MDB HVAC Sizing Pass 1,  55.95,  -3.37,   0.00,  41.10
2,1, 7,21, 0, 1, 0.00,60.00,SummerDesignDay
9,40365120.944245115
14429,0.0
14637,0.0
14674,0.0
14711,0.0
14724,0.0
14875,1674607.7631208843
15063,242258.5559594304
15185,0.0
15305,20149476.534402758
15317,2328873.6436581453
2,1, 7,21, 0, 2, 0.00,60.00,SummerDesignDay
9,40277434.506516084
14429,0.0
14637,0.0
14674,0.0
14711,0.0
14724,0.0
14875,1496209.424372998
15063,209364.19985488418
15185,0.0
15305,20094684.452778265
15317,2274094.0181355067
2,1, 7,21, 0, 3, 0.00,60.00,SummerDesignDay
9,40181381.29375223
14429,0.0
14637,0.0
14674,0.0
14711,0.0
14724,0.0
14875,1343739.7542380919
15063,187413.2995752901
15185,0.0
15305,20020582.140294008
15317,2200020.5463174945
2,1, 7,21, 0, 4, 0.00,60.00,SummerDesignDay
9,40116205.5482112
14429,25154.32216659285
14637,0.0
14674,0.0
14711,1625.9812016882793
14724,1625.9812016882793
14875,1177750.4944861275
15063,137391.5893153475
15185,0.0
15305,20005428.105012923
15317,2184669.4028018373
2,1, 7,21, 0, 5, 0.00,60.00,SummerDesignDay
9,40027775.11369899
14429,765167.0690689147
14637,4406794.304131884
14674,4406794.304131884
14711,18040.482421322682
14724,18040.482421322682
14875,1075442.0808676525
15063,131104.23588691486
15185,0.0
15305,19923285.023929145
15317,2097548.0022129947
2,1, 7,21, 0, 6, 0.00,60.00,SummerDesignDay
9,39947063.88640538
14429,1408312.659035813
14637,7531790.587783131
14674,7531790.587783131
14711,35930.84450146646
14724,35930.84450146646
14875,983757.648663594
15063,124984.68675533053
15185,0.0
15305,19848693.345767114
15317,2019546.7284638798
2,1, 7,21, 0, 7, 0.00,60.00,SummerDesignDay
9,60686705.02879302
14429,922173.3207145625
14637,3519595.324247942
14674,3519595.324247942
14711,47066.21718637825
14724,47066.21718637825
14875,902243.1072571459
15063,118481.0160621793
15185,0.0
15305,19795181.079614617
15317,1969502.7079021016
2,1, 7,21, 0, 8, 0.00,60.00,SummerDesignDay
9,517555643.0789665
14429,341278.02422454016
14637,0.0
14674,0.0
14711,45235.950727633885
14724,45235.950727633885
14875,881691.3088636431
15063,116713.61463685786
15185,0.0
15305,19766577.754889663
15317,1944209.7242424537
2,1, 7,21, 0, 9, 0.00,60.00,SummerDesignDay
9,598616462.2929518
14429,209196.2845618795
14637,0.0
14674,0.0
14711,36560.48066154702
14724,36560.48066154702
14875,48503151.42249897
15063,58880990.07948629
15185,0.0
15305,39668210.531351075
15317,20621259.490802057
2,1, 7,21, 0,10, 0.00,60.00,SummerDesignDay
9,617679276.8367928
14429,0.0
14637,0.0
14674,0.0
14711,4849.8181637042735
14724,4849.8181637042735
14875,54606048.502010725
15063,58900610.59550467
15185,0.0
15305,46382229.90142311
15317,26454101.744261257
2,1, 7,21, 0,11, 0.00,60.00,SummerDesignDay
9,646624657.055311
14429,0.0
14637,0.0
14674,0.0
14711,0.0
14724,0.0
14875,112672094.53606734
15063,58871711.844261855
15185,0.0
15305,72915345.27242815
15317,52368593.04219268
2,1, 7,21, 0,12, 0.00,60.00,SummerDesignDay
9,711361251.4542127
14429,0.0
14637,0.0
14674,0.0
14711,0.0
14724,0.0
14875,244106273.14032876
15063,58837202.40991583
15185,0.0
15305,119281701.99911699
15317,97455126.31333412
2,1, 7,21, 0,13, 0.00,60.00,SummerDesignDay
9,711785100.8233839
14429,0.0
14637,0.0
14674,0.0
14711,0.0
14724,0.0
14875,317109192.79578006
15063,57756928.00527356
15185,0.0
15305,120785825.77293065
15317,98907443.61411564
2,1, 7,21, 0,14, 0.00,60.00,SummerDesignDay
9,716724202.4107769
14429,0.0
14637,0.0
14674,0.0
14711,0.0
14724,0.0
14875,384103578.40883785
15063,57868611.646075025
15185,0.0
15305,125613243.71952209
15317,103303548.25841178
2,1, 7,21, 0,15, 0.00,60.00,SummerDesignDay
9,721665065.3354225
14429,0.0
14637,0.0
14674,0.0
14711,0.0
14724,0.0
14875,435357508.5797345
15063,59573484.69799683
15185,0.0
15305,131244143.56491996
15317,108345471.01547645
2,1, 7,21, 0,16, 0.00,60.00,SummerDesignDay
9,694605779.386608
14429,0.0
14637,0.0
14674,0.0
14711,0.0
14724,0.0
14875,415030607.8961829
15063,60617083.6587641
15185,0.0
15305,128776989.30600151
15317,106053500.678601
2,1, 7,21, 0,17, 0.00,60.00,SummerDesignDay
9,708461189.9166062
14429,0.0
14637,0.0
14674,0.0
14711,1694.2219025328188
14724,1694.2219025328188
14875,361828998.0215469
15063,61952251.464087754
15185,0.0
15305,122892484.92411695
15317,100651822.52397314
2,1, 7,21, 0,18, 0.00,60.00,SummerDesignDay
9,676109867.8390169
14429,0.0
14637,0.0
14674,0.0
14711,1809.7659042595378
14724,1809.7659042595378
14875,223772671.637314
15063,59826031.43761931
15185,0.0
15305,118611484.69195747
15317,96717676.29507913
2,1, 7,21, 0,19, 0.00,60.00,SummerDesignDay
9,628998940.590309
14429,0.0
14637,0.0
14674,0.0
14711,297.0602300482783
14724,297.0602300482783
14875,96883770.01190116
15063,59493707.02007022
15185,0.0
15305,69437971.88812464
15317,48873755.6385335
2,1, 7,21, 0,20, 0.00,60.00,SummerDesignDay
9,388814164.5738417
14429,0.0
14637,0.0
14674,0.0
14711,0.0
14724,0.0
14875,2745355.927624332
15063,362987.3675036029
15185,0.0
15305,20905415.299680594
15317,3010767.976401768
2,1, 7,21, 0,21, 0.00,60.00,SummerDesignDay
9,68916223.7328993
14429,0.0
14637,0.0
14674,0.0
14711,0.0
14724,0.0
14875,2490356.863469428
15063,334803.34668525634
15185,0.0
15305,20623647.535075277
15317,2802901.276583167
2,1, 7,21, 0,22, 0.00,60.00,SummerDesignDay
9,50394483.96977241
14429,0.0
14637,0.0
14674,0.0
14711,0.0
14724,0.0
14875,2305451.701925939
15063,300456.50535997585
15185,0.0
15305,20541001.719832722
15317,2720252.3719363343
2,1, 7,21, 0,23, 0.00,60.00,SummerDesignDay
9,47825550.405474
14429,0.0
14637,0.0
14674,0.0
14711,0.0
14724,0.0
14875,2073822.3571733034
15063,281852.8486938138
15185,0.0
15305,20385581.78487468
15317,2564886.121228053
2,1, 7,21, 0,24, 0.00,60.00,SummerDesignDay
9,42891078.053176
14429,0.0
14637,0.0
14674,0.0
14711,0.0
14724,0.0
14875,1874102.6043582426
15063,264241.7643150971
15185,0.0
15305,20258540.462303776
15317,2437894.0726918485
1,EDINBURGH.AP ANN HTG 99.6% CONDNS DB HVAC Sizing Pass 1,  55.95,  -3.37,   0.00,  41.10
2,1, 1,21, 0, 1, 0.00,60.00,WinterDesignDay
9,30932651.922957897
14429,420663830.88807386
14637,317806268.6288918
14674,317806268.6288918
14711,103275521.04925893
14724,103275521.04925893
14875,0.0
15063,8639505.819762273
15185,0.0
15305,2319760.2493126923
15317,0.0
2,1, 1,21, 0, 2, 0.00,60.00,WinterDesignDay
9,31731127.456660416
14429,433136495.5918161
14637,320158300.8188232
14674,320158300.8188232
14711,114116863.42356227
14724,114116863.42356227
14875,0.0
15063,9282901.082243336
15185,0.0
15305,2474840.5205341484
15317,0.0
2,1, 1,21, 0, 3, 0.00,60.00,WinterDesignDay
9,32558981.588627227
14429,445018681.91852313
14637,322315500.1200818
14674,322315500.1200818
14711,124309352.28110725
14724,124309352.28110725
14875,0.0
15063,9950353.247737173
15185,0.0
15305,2635242.4870071285
15317,0.0
2,1, 1,21, 0, 4, 0.00,60.00,WinterDesignDay
9,33402154.343410984
14429,456951164.64996535
14637,324076509.00457424
14674,324076509.00457424
14711,134154315.72328995
14724,134154315.72328995
14875,0.0
15063,10630215.293111691
15185,0.0
15305,2798553.1964163724
15317,0.0
2,1, 1,21, 0, 5, 0.00,60.00,WinterDesignDay
9,34258078.667104185
14429,467644932.874234
14637,325830882.8806296
14674,325830882.8806296
14711,144031539.2045403
14724,144031539.2045403
14875,0.0
15063,11319905.742554775
15185,0.0
15305,2964787.0706664715
15317,0.0
2,1, 1,21, 0, 6, 0.00,60.00,WinterDesignDay
9,34902572.51304448
14429,477616280.4874424
14637,327421862.9986469
14674,327421862.9986469
14711,152959263.7260773
14724,152959263.7260773
14875,0.0
15063,11839124.300376503
15185,0.0
15305,3090062.358785044
15317,0.0
2,1, 1,21, 0, 7, 0.00,60.00,WinterDesignDay
9,35583855.53933039
14429,487975671.5061476
14637,329164775.87622756
14674,329164775.87622756
14711,161344436.56406727
14724,161344436.56406727
14875,0.0
15063,12388301.841635354
15185,0.0
15305,3222167.843812113
15317,0.0
2,1, 1,21, 0, 8, 0.00,60.00,WinterDesignDay
9,36261246.89016209
14429,497222277.36092985
14637,330696398.0131517
14674,330696398.0131517
14711,169627098.0620171
14724,169627098.0620171
14875,0.0
15063,12934651.180815697
15185,0.0
15305,3353209.855463458
15317,0.0
2,1, 1,21, 0, 9, 0.00,60.00,WinterDesignDay
9,85542858.72607473
14429,1460759399.0097604
14637,584931521.7187743
14674,584931521.7187743
14711,885248614.7539995
14724,885248614.7539995
14875,0.0
15063,56485026.59855074
15185,0.0
15305,9084446.273641061
15317,0.0
2,1, 1,21, 0,10, 0.00,60.00,WinterDesignDay
9,64468325.78455333
14429,1159964746.1130602
14637,510171682.878428
14674,510171682.878428
14711,656595470.9932034
14724,656595470.9932034
14875,0.0
15063,36008293.09231358
15185,0.0
15305,8486646.838356795
15317,0.0
2,1, 1,21, 0,11, 0.00,60.00,WinterDesignDay
9,61351246.25647861
14429,1087755992.5342321
14637,495026387.9551103
14674,495026387.9551103
14711,601298707.707778
14724,601298707.707778
14875,0.0
15063,33257117.433339655
15185,0.0
15305,8120742.969256022
15317,0.0
2,1, 1,21, 0,12, 0.00,60.00,WinterDesignDay
9,59236231.549948744
14429,1045488854.8482533
14637,487478844.4538103
14674,487478844.4538103
14711,566034893.276086
14724,566034893.276086
14875,0.0
15063,31354929.843574006
15185,0.0
15305,7907915.852491802
15317,0.0
2,1, 1,21, 0,13, 0.00,60.00,WinterDesignDay
9,57607955.940994166
14429,1012458874.8344775
14637,482509684.1587221
14674,482509684.1587221
14711,538251183.0396202
14724,538251183.0396202
14875,0.0
15063,29905287.44490031
15185,0.0
15305,7729282.642210917
15317,0.0
2,1, 1,21, 0,14, 0.00,60.00,WinterDesignDay
9,56550509.21640383
14429,984814702.700964
14637,478525600.4104669
14674,478525600.4104669
14711,514508688.13928354
14724,514508688.13928354
14875,0.0
15063,29057824.94251086
15185,0.0
15305,7519298.420010041
15317,0.0
2,1, 1,21, 0,15, 0.00,60.00,WinterDesignDay
9,55629706.85351473
14429,961119718.3139069
14637,474993649.54984343
14674,474993649.54984343
14711,494152821.9675351
14724,494152821.9675351
14875,0.0
15063,28320013.781292
15185,0.0
15305,7336307.218339795
15317,0.0
2,1, 1,21, 0,16, 0.00,60.00,WinterDesignDay
9,54823956.48814996
14429,940868385.397219
14637,472165687.2531449
14674,472165687.2531449
14711,476576090.0507013
14724,476576090.0507013
14875,0.0
15063,27673718.158675045
15185,0.0
15305,7176852.475591986
15317,0.0
2,1, 1,21, 0,17, 0.00,60.00,WinterDesignDay
9,54115380.54867129
14429,923213193.9903402
14637,469608185.0877176
14674,469608185.0877176
14711,461328997.87153226
14724,461328997.87153226
14875,0.0
15063,27105524.920552693
15185,0.0
15305,7036469.774235671
15317,0.0
2,1, 1,21, 0,18, 0.00,60.00,WinterDesignDay
9,53490678.87183895
14429,907853926.1790226
14637,467393154.7407417
14674,467393154.7407417
14711,448052018.7589028
14724,448052018.7589028
14875,0.0
15063,26604468.58989838
15185,0.0
15305,6912824.428057637
15317,0.0
2,1, 1,21, 0,19, 0.00,60.00,WinterDesignDay
9,52940140.09834334
14429,894527003.1177764
14637,465515490.4023765
14674,465515490.4023765
14711,436483799.7084054
14724,436483799.7084054
14875,0.0
15063,26162721.73554981
15185,0.0
15305,6804032.508910611
15317,0.0
2,1, 1,21, 0,20, 0.00,60.00,WinterDesignDay
9,20875305.881780878
14429,118116870.59687562
14637,231016449.47096416
14674,231016449.47096416
14711,7802945.617238024
14724,7802945.617238024
14875,0.0
15063,586048.10450668
15185,0.0
15305,315871.9233912656
15317,0.0
2,1, 1,21, 0,21, 0.00,60.00,WinterDesignDay
9,24083769.68523277
14429,396741095.5639291
14637,297524117.26796377
14674,297524117.26796377
14711,36476902.98274629
14724,36476902.98274629