Program Version,EnergyPlus, Version 23.2.0-7636e6b3e9, YMD=2025.10.15 16:11
1,5,Environment Title[],Latitude[deg],Longitude[deg],Time Zone[],Elevation[m]
2,8,Day of Simulation[],Month[],Day of Month[],DST Indicator[1=yes 0=no],Hour[],StartMinute[],EndMinute[],DayType
3,5,Cumulative Day of Simulation[],Month[],Day of Month[],DST Indicator[1=yes 0=no],DayType  ! When Daily Meters Requested
4,2,Cumulative Days of Simulation[],Month[]  ! When Monthly Meters Requested
5,1,Cumulative Days of Simulation[] ! When Run Period Meters Requested
6,1,Calendar Year of Simulation[] ! When Annual Meters Requested
14674,1,Baseboard:PlantLoopHeatingDemand [J] !Hourly
14724,1,HeatingCoils:PlantLoopHeatingDemand [J] !Hourly
14875,1,CoolingCoils:EnergyTransfer [J] !Hourly
14711,1,HeatingCoils:EnergyTransfer [J] !Hourly
15063,1,Electricity:HVAC [J] !Hourly
15305,1,Electricity:Plant [J] !Hourly
14637,1,Baseboard:EnergyTransfer [J] !Hourly
9,1,Electricity:Facility [J] !Hourly
14429,1,DistrictHeatingWater:Facility [J] !Hourly
15185,1,DistrictCooling:Facility [J] !Hourly
15317,1,Cooling:Electricity [J] !Hourly
End of Data Dictionary
1,EDINBURGH.AP ANN CLG .4% CONDNS DB=>MWB HVAC Sizing Pass 1,  55.95,  -3.37,   0.00,  41.10
2,1, 7,21, 0, 1, 0.00,60.00,SummerDesignDay
9,40544808.73349188
14429,0.0
14637,0.0
14674,0.0
14711,0.0
14724,0.0
14875,2037440.5207207208
15063,282364.7005899113
15185,0.0
15305,20289058.179019038
15317,2468372.726141757
2,1, 7,21, 0, 2, 0.00,60.00,SummerDesignDay
9,40426871.39162969
14429,0.0
14637,0.0
14674,0.0
14711,0.0
14724,0.0
14875,1854691.719104163
15063,265113.39860581927
15185,0.0
15305,20188372.139140937
15317,2367733.360480091
2,1, 7,21, 0, 3, 0.00,60.00,SummerDesignDay
9,40326950.33432516
14429,0.0
14637,0.0
14674,0.0
14711,0.0
14724,0.0
14875,1688048.7412094753
15063,248774.50350807834
15185,0.0
15305,20104789.976934146
15317,2284194.4213475026
2,1, 7,21, 0, 4, 0.00,60.00,SummerDesignDay
9,40240750.664409675
14429,0.0
14637,0.0
14674,0.0
14711,0.0
14724,0.0
14875,1531646.8482104135
15063,229661.9901726303
15185,0.0
15305,20037702.820354115
15317,2217141.336080837
2,1, 7,21, 0, 5, 0.00,60.00,SummerDesignDay
9,40177265.82947999
14429,1374788.3722379643
14637,5880444.239779849
14674,5880444.239779849
14711,0.0
14724,0.0
14875,1371364.0986125492
15063,197151.8671056137
15185,0.0
15305,20006728.10849145
15317,2180746.409792414
2,1, 7,21, 0, 6, 0.00,60.00,SummerDesignDay
9,40123104.52726337
14429,2371914.8387108305
14637,9124414.694001313
14674,9124414.694001313
14711,3505.3152896776737
14724,3505.3152896776737
14875,1210774.3518645973
15063,150164.6051547008
15185,0.0
15305,19999554.06822574
15317,2170242.666802098
2,1, 7,21, 0, 7, 0.00,60.00,SummerDesignDay
9,60853986.839441314
14429,1415951.674475537
14637,4208454.829653922
14674,4208454.829653922
14711,16582.025708653833
14724,16582.025708653833
14875,1108920.680445216
15063,133864.6311410037
15185,0.0
15305,19947079.275184095
15317,2121582.737369038
2,1, 7,21, 0, 8, 0.00,60.00,SummerDesignDay
9,517706374.2691183
14429,289651.85928211507
14637,0.0
14674,0.0
14711,15244.379548478613
14724,15244.379548478613
14875,1085931.5903859504
15063,131717.632085124
15185,0.0
15305,19902304.927593216
15317,2080758.082192992
2,1, 7,21, 0, 9, 0.00,60.00,SummerDesignDay
9,639051570.5162491
14429,11660.751897596287
14637,0.0
14674,0.0
14711,1679.2140356512164
14724,1679.2140356512164
14875,267168822.09465072
15063,22025284.449797705
15185,0.0
15305,116959024.3843374
15317,95046607.7189915
2,1, 7,21, 0,10, 0.00,60.00,SummerDesignDay
9,668186107.0050559
14429,0.0
14637,0.0
14674,0.0
14711,136.86437543806613
14724,136.86437543806613
14875,415872541.49765146
15063,30857504.475672696
15185,0.0
15305,124932166.18951863
15317,101029912.05355474
2,1, 7,21, 0,11, 0.00,60.00,SummerDesignDay
9,683143335.5164262
14429,0.0
14637,0.0
14674,0.0
14711,0.0
14724,0.0
14875,490921635.0713568
15063,34443852.12601246
15185,0.0
15305,133861883.4517931
15317,108459137.19441643
2,1, 7,21, 0,12, 0.00,60.00,SummerDesignDay
9,710569519.1015017
14429,0.0
14637,0.0
14674,0.0
14711,0.0
14724,0.0
14875,538137585.66189
15063,37025290.19401574
15185,0.0
15305,140301881.86230636
15317,114397082.59103927
2,1, 7,21, 0,13, 0.00,60.00,SummerDesignDay
9,706809697.3492196
14429,0.0
14637,0.0
14674,0.0
14711,0.0
14724,0.0
14875,510928886.2093443
15063,35553778.7010216
15185,0.0
15305,138013571.60301852
15317,112602519.45890917
2,1, 7,21, 0,14, 0.00,60.00,SummerDesignDay
9,710387980.3375161
14429,0.0
14637,0.0
14674,0.0
14711,0.0
14724,0.0
14875,524495411.7628294
15063,37028308.01804368
15185,0.0
15305,140117325.27429292
15317,114593353.082331
2,1, 7,21, 0,15, 0.00,60.00,SummerDesignDay
9,721122713.2062253
14429,0.0
14637,0.0
14674,0.0
14711,0.0
14724,0.0
14875,592039122.8903202
15063,41796651.4907712
15185,0.0
15305,148478624.64294872
15317,121964031.67996475
2,1, 7,21, 0,16, 0.00,60.00,SummerDesignDay
9,698350424.7721176
14429,0.0
14637,0.0
14674,0.0
14711,0.0
14724,0.0
14875,608813013.1269088
15063,42771217.98981336
15185,0.0
15305,150367500.36046213
15317,123489774.08323658
2,1, 7,21, 0,17, 0.00,60.00,SummerDesignDay
9,716918964.6314018
14429,0.0
14637,0.0
14674,0.0
14711,0.0
14724,0.0
14875,612762855.3428559
15063,43087616.76668287
15185,0.0
15305,150214894.33631766
15317,123112596.6678095
2,1, 7,21, 0,18, 0.00,60.00,SummerDesignDay
9,669819803.5737336
14429,0.0
14637,0.0
14674,0.0
14711,0.0
14724,0.0
14875,499347002.5490068
15063,35933752.15930537
15185,0.0
15305,136213699.70498836
15317,110464105.21765065
2,1, 7,21, 0,19, 0.00,60.00,SummerDesignDay
9,657815061.1321205
14429,0.0
14637,0.0
14674,0.0
14711,0.0
14724,0.0
14875,412831004.78892344
15063,32079421.822769415
15185,0.0
15305,125668377.62723714
15317,101162129.69784574
2,1, 7,21, 0,20, 0.00,60.00,SummerDesignDay
9,388720094.9521592
14429,0.0
14637,0.0
14674,0.0
14711,0.0
14724,0.0
14875,3216694.849468014
15063,497514.24670552724
15185,0.0
15305,20676818.798796207
15317,2767377.5016086935
2,1, 7,21, 0,21, 0.00,60.00,SummerDesignDay
9,68962768.56838003
14429,0.0
14637,0.0
14674,0.0
14711,0.0
14724,0.0
14875,2922659.7828611825
15063,449391.3352600355
15185,0.0
15305,20555604.381981228
15317,2734826.718885312
2,1, 7,21, 0,22, 0.00,60.00,SummerDesignDay
9,50490995.81143132
14429,0.0
14637,0.0
14674,0.0
14711,0.0
14724,0.0
14875,2678733.768101917
15063,384788.2509066231
15185,0.0
15305,20553181.815944985
15317,2732408.069196665
2,1, 7,21, 0,23, 0.00,60.00,SummerDesignDay
9,48013672.24910152
14429,0.0
14637,0.0
14674,0.0
14711,0.0
14724,0.0
14875,2460254.871843607
15063,319825.9754149437
15185,0.0
15305,20535730.501781076
15317,2714939.9828781644
2,1, 7,21, 0,24, 0.00,60.00,SummerDesignDay
9,43074932.245798506
14429,0.0
14637,0.0
14674,0.0
14711,0.0
14724,0.0
14875,2240380.4911352107
15063,300985.7424515283
15185,0.0
15305,20405650.67678984
15317,2584913.861868281
1,EDINBURGH.AP ANN CLG .4% CONDNS DP=>MDB HVAC Sizing Pass 1,  55.95,  -3.37,   0.00,  41.10
2,1, 7,21, 0, 1, 0.00,60.00,SummerDesignDay
9,40259886.594773844
14429,0.0
14637,0.0
14674,0.0
14711,0.0
14724,0.0
14875,1511838.214849867
15063,214147.45317061874
15185,0.0
15305,20072353.287720293
15317,2251765.41509347
2,1, 7,21, 0, 2, 0.00,60.00,SummerDesignDay
9,40169271.32716639
14429,0.0
14637,0.0
14674,0.0
14711,0.0
14724,0.0
14875,1356464.3242360349
15063,192181.9509844917
15185,0.0
15305,20003703.522298973
15317,2183145.619121038
2,1, 7,21, 0, 3, 0.00,60.00,SummerDesignDay
9,40106727.225924596
14429,1636221.8383138068
14637,3611823.847502033
14674,3611823.847502033
14711,1060.9328041183594
14724,1060.9328041183594
14875,1185955.7229679679
15063,141268.56235601648
15185,0.0
15305,19992072.80968565
15317,2168082.282906526
2,1, 7,21, 0, 4, 0.00,60.00,SummerDesignDay
9,40021178.97675394
14429,5555509.494560266
14637,11194547.979920452
14674,11194547.979920452
14711,16810.492036444062
14724,16810.492036444062
14875,1077459.9470546523
15063,131024.09422347503
15185,0.0
15305,19916769.028647535
15317,2084918.565174544
2,1, 7,21, 0, 5, 0.00,60.00,SummerDesignDay
9,39959521.26765234
14429,8799001.241779115
14637,16891028.324492943
14674,16891028.324492943
14711,37385.07574482103
14724,37385.07574482103
14875,982360.1525069373
15063,124762.69838518283
15185,0.0
15305,19861372.715384226
15317,2023718.6505432636
2,1, 7,21, 0, 6, 0.00,60.00,SummerDesignDay
9,39889576.581265904
14429,10461883.930980261
14637,18922144.072648663
14674,18922144.072648663
14711,53796.45698101515
14724,53796.45698101515
14875,891554.6610895003
15063,117299.01308468328
15185,0.0
15305,19798891.714298286
15317,1959033.4697742516
2,1, 7,21, 0, 7, 0.00,60.00,SummerDesignDay
9,60617374.74300556
14429,9196462.815221863
14637,15238490.39057303
14674,15238490.39057303
14711,67871.39434548898
14724,67871.39434548898
14875,808805.9910053867
15063,108637.22897164088
15185,0.0
15305,19735694.580917705
15317,1898926.744650133
2,1, 7,21, 0, 8, 0.00,60.00,SummerDesignDay
9,517484638.6930336
14429,1675043.473509164
14637,568800.68860535
14674,568800.68860535
14711,68493.57255256666
14724,68493.57255256666
14875,785279.1716068266
15063,107506.14375663671
15185,0.0
15305,19704780.839836825
15317,1881415.4673457178
2,1, 7,21, 0, 9, 0.00,60.00,SummerDesignDay
9,632043263.5782081
14429,1018703.4589095248
14637,0.0
14674,0.0
14711,45270.38657098179
14724,45270.38657098179
14875,210040303.25385958
15063,17978925.483965382
15185,0.0
15305,113997076.41212875
15317,92510027.58470206
2,1, 7,21, 0,10, 0.00,60.00,SummerDesignDay
9,661024048.1222701
14429,377723.8400008366
14637,0.0
14674,0.0
14711,13377.248869080613
14724,13377.248869080613
14875,370705010.9524856
15063,27125129.697961193
15185,0.0
15305,121502482.08444422
15317,97804627.74473223
2,1, 7,21, 0,11, 0.00,60.00,SummerDesignDay
9,677025770.3448285
14429,0.0
14637,0.0
14674,0.0
14711,971.4811049208755
14724,971.4811049208755
14875,449293068.7336724
15063,31109536.599715725
15185,0.0
15305,131078633.80649237
15317,106652628.1127483
2,1, 7,21, 0,12, 0.00,60.00,SummerDesignDay
9,704517000.645297
14429,0.0
14637,0.0
14674,0.0
14711,0.0
14724,0.0
14875,499771494.0907808
15063,33682863.89808129
15185,0.0
15305,137591789.7020362
15317,112596861.06707835
2,1, 7,21, 0,13, 0.00,60.00,SummerDesignDay
9,700474941.9020662
14429,0.0
14637,0.0
14674,0.0
14711,0.0
14724,0.0
14875,474158564.90630573
15063,31689145.56422437
15185,0.0
15305,135543449.2926625
15317,110799771.15694375
2,1, 7,21, 0,14, 0.00,60.00,SummerDesignDay
9,704119708.5379905
14429,0.0
14637,0.0
14674,0.0
14711,0.0
14724,0.0
14875,490064467.77167755
15063,33292218.29974798
15185,0.0
15305,137585143.19306284
15317,112731432.68268076
2,1, 7,21, 0,15, 0.00,60.00,SummerDesignDay
9,715494052.4025667
14429,0.0
14637,0.0
14674,0.0
14711,0.0
14724,0.0
14875,564217749.3204873
15063,38213818.750120774
15185,0.0
15305,146432796.57994065
15317,120700972.82992671
2,1, 7,21, 0,16, 0.00,60.00,SummerDesignDay
9,692964546.1288549
14429,0.0
14637,0.0
14674,0.0
14711,387.79315818346583
14724,387.79315818346583
14875,580156051.2101563
15063,39484818.06121655
15185,0.0
15305,148268021.6457961
15317,122255871.697905
2,1, 7,21, 0,17, 0.00,60.00,SummerDesignDay
9,712155376.1078546
14429,0.0
14637,0.0
14674,0.0
14711,233.14627823867517
14724,233.14627823867517
14875,584260960.7899228
15063,40258358.220256135
15185,0.0
15305,148280564.35919735
15317,122119788.47681125
2,1, 7,21, 0,18, 0.00,60.00,SummerDesignDay
9,664901016.0503774
14429,0.0
14637,0.0
14674,0.0
14711,38.92025700003259
14724,38.92025700003259
14875,465126599.2658081
15063,33307785.146897763
15185,0.0
15305,133920879.19403967
15317,109172799.2955294
2,1, 7,21, 0,19, 0.00,60.00,SummerDesignDay
9,654104986.95311
14429,0.0
14637,0.0
14674,0.0
14711,3993.884613718107
14724,3993.884613718107
14875,389720950.2056961
15063,29117630.37552312
15185,0.0
15305,124920094.89547268
15317,100942066.11396447
2,1, 7,21, 0,20, 0.00,60.00,SummerDesignDay
9,388422056.3089383
14429,0.0
14637,0.0
14674,0.0
14711,0.0
14724,0.0
14875,2568861.0071140444
15063,344826.53539759316
15185,0.0
15305,20531467.86688327
15317,2612255.2077540727
2,1, 7,21, 0,21, 0.00,60.00,SummerDesignDay
9,68687560.98323433
14429,0.0
14637,0.0
14674,0.0
14711,0.0
14724,0.0
14875,2363176.617370925
15063,307983.4424580715
15185,0.0
15305,20421804.689637497
15317,2601051.9942086404
2,1, 7,21, 0,22, 0.00,60.00,SummerDesignDay
9,50156700.4228224
14429,0.0
14637,0.0
14674,0.0
14711,0.0
14724,0.0
14875,2114306.728267008
15063,284764.83607077145
15185,0.0
15305,20318909.842171907
15317,2498204.8572052023
2,1, 7,21, 0,23, 0.00,60.00,SummerDesignDay
9,47638021.0737843
14429,0.0
14637,0.0
14674,0.0
14711,0.0
14724,0.0
14875,1899379.1122370474
15063,266440.7109886168
15185,0.0
15305,20213464.59089017
15317,2392811.6848143633
2,1, 7,21, 0,24, 0.00,60.00,SummerDesignDay
9,42736623.95729837
14429,0.0
14637,0.0
14674,0.0
14711,0.0
14724,0.0
14875,1707838.1892122196
15063,248852.44387811513
15185,0.0
15305,20119475.686863124
15317,2298871.3532429207
1,EDINBURGH.AP ANN CLG .4% CONDNS ENTH=>MDB HVAC Sizing Pass 1,  55.95,  -3.37,   0.00,  41.10
2,1, 7,21, 0, 1, 0.00,60.00,SummerDesignDay
9,40678109.291449286
14429,0.0
14637,0.0
14674,0.0
14711,0.0
14724,0.0
14875,2239178.758161453
15063,299418.51274299267
15185,0.0
15305,20405304.924823362
15317,2584572.5841534683
2,1, 7,21, 0, 2, 0.00,60.00,SummerDesignDay
9,40570556.31413117
14429,0.0
14637,0.0
14674,0.0
14711,0.0
14724,0.0
14875,2072626.3168441637
15063,284362.13563661446
15185,0.0
15305,20312808.32461162
15317,2492116.626259649
2,1, 7,21, 0, 3, 0.00,60.00,SummerDesignDay
9,40471914.48751482
14429,0.0
14637,0.0
14674,0.0
14711,0.0
14724,0.0
14875,1919470.4865590527
15063,269987.9808320577
15185,0.0
15305,20228540.652799826
15317,2407886.9258272997
2,1, 7,21, 0, 4, 0.00,60.00,SummerDesignDay
9,40380833.73721681
14429,0.0
14637,0.0
14674,0.0
14711,0.0
14724,0.0
14875,1773949.1135325786
15063,255934.0891772132
15185,0.0
15305,20151513.794156667
15317,2330896.5345017454
2,1, 7,21, 0, 5, 0.00,60.00,SummerDesignDay
9,40295220.00247502
14429,0.0
14637,0.0
14674,0.0
14711,0.0
14724,0.0
14875,1634576.564939313
15063,242100.10268395272
15185,0.0
15305,20079734.045908127
15317,2259152.165150294
2,1, 7,21, 0, 6, 0.00,60.00,SummerDesignDay
9,40249587.35089555
14429,0.0
14637,0.0
14674,0.0
14711,0.0
14724,0.0
14875,1490279.850660196
15063,208537.51635999972
15185,0.0
15305,20067663.980652615
15317,2247076.885197968
2,1, 7,21, 0, 7, 0.00,60.00,SummerDesignDay
9,60984286.760892406
14429,0.0
14637,0.0
14674,0.0
14711,0.0
14724,0.0
14875,1373533.9172911155
15063,186700.83018913
15185,0.0
15305,20024542.99758705
15317,2203965.601564562
2,1, 7,21, 0, 8, 0.00,60.00,SummerDesignDay
9,517863781.4319999
14429,0.0
14637,0.0
14674,0.0
14711,0.0
14724,0.0
14875,1350529.0785775054
15063,173931.59665895413
15185,0.0
15305,20017498.125900988
15317,2196904.203638619
2,1, 7,21, 0, 9, 0.00,60.00,SummerDesignDay
9,645652806.1076918
14429,0.0
14637,0.0
14674,0.0
14711,3658.8122770163013
14724,3658.8122770163013
14875,337410454.2503598
15063,25871258.343976006
15185,0.0
15305,119714286.08160189
15317,96522835.52712214
2,1, 7,21, 0,10, 0.00,60.00,SummerDesignDay
9,679139061.9876276
14429,0.0
14637,0.0
14674,0.0
14711,312.9357931912039
14724,312.9357931912039
14875,470495697.17095476
15063,33453404.66468768
15185,0.0
15305,133289220.98307532
15317,108504465.94513054
2,1, 7,21, 0,11, 0.00,60.00,SummerDesignDay
9,692745149.741834
14429,0.0
14637,0.0
14674,0.0
14711,0.0
14724,0.0
14875,532626390.86955005
15063,36430613.64374613
15185,0.0
15305,141476936.15946746
15317,116067074.76082112
2,1, 7,21, 0,12, 0.00,60.00,SummerDesignDay
9,719013415.9254797
14429,0.0
14637,0.0
14674,0.0
14711,0.0
14724,0.0
14875,574797439.5734948
15063,38237518.387274675
15185,0.0
15305,147533550.49302545
15317,121611456.75638059
2,1, 7,21, 0,13, 0.00,60.00,SummerDesignDay
9,713629819.7681534
14429,0.0
14637,0.0
14674,0.0
14711,0.0
14724,0.0
14875,539864774.5771425
15063,36494339.61844154
15185,0.0
15305,143893133.1045326
15317,118575097.97763747
2,1, 7,21, 0,14, 0.00,60.00,SummerDesignDay
9,716120053.8857042
14429,0.0
14637,0.0
14674,0.0
14711,0.0
14724,0.0
14875,548764410.3239825
15063,37484796.62954237
15185,0.0
15305,145392910.2109822
15317,119983752.34043205
2,1, 7,21, 0,15, 0.00,60.00,SummerDesignDay
9,726637981.6282331
14429,0.0
14637,0.0
14674,0.0
14711,0.0
14724,0.0
14875,612647602.3134404
15063,42222738.52408756
15185,0.0
15305,153567806.03164014
15317,127282114.1696358
2,1, 7,21, 0,16, 0.00,60.00,SummerDesignDay
9,703768710.1927865
14429,0.0
14637,0.0
14674,0.0
14711,326.3629377147911
14724,326.3629377147911
14875,628734194.5205292
15063,43029387.01805396
15185,0.0
15305,155527616.75289032
15317,128916297.99445474
2,1, 7,21, 0,17, 0.00,60.00,SummerDesignDay
9,722530079.1229047
14429,0.0
14637,0.0
14674,0.0
14711,60.36121425960115
14724,60.36121425960115
14875,632341887.0353162
15063,43406750.99318582
15185,0.0
15305,155506874.60131782
15317,128719425.86250892
2,1, 7,21, 0,18, 0.00,60.00,SummerDesignDay
9,675014698.294847
14429,0.0
14637,0.0
14674,0.0
14711,279.2493655256761
14724,279.2493655256761
14875,516714835.5081428
15063,36526258.8438531
15185,0.0
15305,140816087.74155417
15317,115408107.66769533
2,1, 7,21, 0,19, 0.00,60.00,SummerDesignDay
9,662868750.7422478
14429,0.0
14637,0.0
14674,0.0
14711,122.43127019005428
14724,122.43127019005428
14875,430813233.87139326
15063,32677631.437531345
15185,0.0
15305,130123857.62260233
15317,105801761.90607294
2,1, 7,21, 0,20, 0.00,60.00,SummerDesignDay
9,388907735.79815274
14429,0.0
14637,0.0
14674,0.0
14711,0.0
14724,0.0
14875,3363863.8269437915
15063,509691.135795762
15185,0.0
15305,20852282.755699486
15317,2938687.0088227596
2,1, 7,21, 0,21, 0.00,60.00,SummerDesignDay
9,69119981.14808081
14429,0.0
14637,0.0
14674,0.0
14711,0.0
14724,0.0
14875,3103090.223234659
15063,482231.07581344526
15185,0.0
15305,20679977.221128598
15317,2859187.005254573
2,1, 7,21, 0,22, 0.00,60.00,SummerDesignDay
9,50592577.708542064
14429,0.0
14637,0.0
14674,0.0
14711,0.0
14724,0.0
14875,2851677.368831645
15063,429960.450318831
15185,0.0
15305,20609591.513643514
15317,2788827.717828774
2,1, 7,21, 0,23, 0.00,60.00,SummerDesignDay
9,48151083.81947528
14429,0.0
14637,0.0
14674,0.0
14711,0.0
14724,0.0
14875,2680470.423344105
15063,362257.5294330673
15185,0.0
15305,20630710.518136702
15317,2809908.017583323
2,1, 7,21, 0,24, 0.00,60.00,SummerDesignDay
9,43227091.88341502
14429,0.0
14637,0.0
14674,0.0
14711,0.0
14724,0.0
14875,2448362.7590908185
15063,317589.04222639935
15185,0.0
15305,20541207.014631495
15317,2720425.029214614
1,EDINBURGH.AP ANN CLG .4% CONDNS WB=>MDB HVAC Sizing Pass 1,  55.95,  -3.37,   0.00,  41.10
2,1, 7,21, 0, 1, 0.00,60.00,SummerDesignDay
9,40456462.66257793
14429,0.0
14637,0.0
14674,0.0
14711,0.0
14724,0.0
14875,1899460.0264415808
15063,268232.435835244
15185,0.0
15305,20214844.372859754
15317,2394193.8980301023
2,1, 7,21, 0, 2, 0.00,60.00,SummerDesignDay
9,40351154.56101897
14429,0.0
14637,0.0
14674,0.0
14711,0.0
14724,0.0
14875,1727177.4962902768
15063,251835.9667521036
15185,0.0
15305,20125932.740383934
15317,2305326.1457194877
2,1, 7,21, 0, 3, 0.00,60.00,SummerDesignDay
9,40277776.82557976
14429,0.0
14637,0.0
14674,0.0
14711,0.0
14724,0.0
14875,1565042.5642705637
15063,229387.11232299305
15185,0.0
15305,20075003.859373838
15317,2254425.2671722984
2,1, 7,21, 0, 4, 0.00,60.00,SummerDesignDay
9,40192601.39993912
14429,0.0
14637,0.0
14674,0.0
14711,0.0
14724,0.0
14875,1409753.129480517
15063,201020.83519684908
15185,0.0
15305,20018194.71085934
15317,2197630.62720672
2,1, 7,21, 0, 5, 0.00,60.00,SummerDesignDay
9,40126178.55874944
14429,424698.32553247997
14637,2983935.8798742923
14674,2983935.8798742923
14711,0.0
14724,0.0
14875,1258045.37497728
15063,167749.59859710018
15185,0.0
15305,19985043.106269404
15317,2161723.6703541772
2,1, 7,21, 0, 6, 0.00,60.00,SummerDesignDay
9,40065224.5952083
14429,1120555.3728086913
14637,6358290.873797997
14674,6358290.873797997
14711,11667.571483487816
14724,11667.571483487816
14875,1126587.4088324045
15063,134524.75296540302
15185,0.0
15305,19957313.988359965
15317,2130002.8845609347
2,1, 7,21, 0, 7, 0.00,60.00,SummerDesignDay
9,60790527.49382729
14429,658691.367488369
14637,2536920.612388583
14674,2536920.612388583
14711,25337.774204243113
14724,25337.774204243113
14875,1041413.9426899011
15063,128971.65976760475
15185,0.0
15305,19888512.90094348
15317,2064274.8516602246
2,1, 7,21, 0, 8, 0.00,60.00,SummerDesignDay
9,517651762.52920425
14429,239955.2747246448
14637,0.0
14674,0.0
14711,24735.173536320497
14724,24735.173536320497
14875,1018822.4522814291
15063,127018.94893722718
15185,0.0
15305,19852391.870827068
15317,2030531.8058514593
2,1, 7,21, 0, 9, 0.00,60.00,SummerDesignDay
9,639117980.498461
14429,53711.21667409554
14637,0.0
14674,0.0
14711,7922.363126799226
14724,7922.363126799226
14875,263116737.63497734
15063,21476966.91649691
15185,0.0
15305,117573751.89984994
15317,95097329.6695099
2,1, 7,21, 0,10, 0.00,60.00,SummerDesignDay
9,669649643.9717778
14429,0.0
14637,0.0
14674,0.0
14711,2079.6598227624813
14724,2079.6598227624813
14875,417278448.190831
15063,30160145.548763674
15185,0.0
15305,127093062.08314951
15317,102950919.78667007
2,1, 7,21, 0,11, 0.00,60.00,SummerDesignDay
9,685113191.9140227
14429,0.0
14637,0.0
14674,0.0
14711,0.0
14724,0.0
14875,492903479.07829624
15063,33663786.41418032
15185,0.0
15305,136611805.5612216
15317,111671602.64643341
2,1, 7,21, 0,12, 0.00,60.00,SummerDesignDay
9,712761085.6609683
14429,0.0
14637,0.0
14674,0.0
14711,0.0
14724,0.0
14875,541224176.5798774
15063,36397497.71833552
15185,0.0
15305,143121240.89745343
15317,117747043.18906757
2,1, 7,21, 0,13, 0.00,60.00,SummerDesignDay
9,708688176.7011211
14429,0.0
14637,0.0
14674,0.0
14711,0.0
14724,0.0
14875,513841182.7029622
15063,34757402.60288403
15185,0.0
15305,140688427.05305764
15317,115731787.69519176
2,1, 7,21, 0,14, 0.00,60.00,SummerDesignDay
9,712143619.0874076
14429,0.0
14637,0.0
14674,0.0
14711,0.0
14724,0.0
14875,529122138.79975754
15063,35940700.59259548
15185,0.0
15305,142960571.44963256
15317,117850295.58296773
2,1, 7,21, 0,15, 0.00,60.00,SummerDesignDay
9,723191144.5222772
14429,0.0
14637,0.0
14674,0.0
14711,0.0
14724,0.0
14875,598038535.8058453
15063,40677834.777334034
15185,0.0
15305,151665872.6724378
15317,125617335.68604222
2,1, 7,21, 0,16, 0.00,60.00,SummerDesignDay
9,700446853.0189573
14429,0.0
14637,0.0
14674,0.0
14711,413.9565364518623
14724,413.9565364518623
14875,613619886.1671594
15063,41736369.39678192
15185,0.0
15305,153498777.20033315
15317,127134894.23288113
2,1, 7,21, 0,17, 0.00,60.00,SummerDesignDay
9,719200507.7318413
14429,0.0
14637,0.0
14674,0.0
14711,294.7768349001266
14724,294.7768349001266
14875,615753442.0603777
15063,42403795.08875537
15185,0.0
15305,153180259.11468494
15317,126675940.57586938
2,1, 7,21, 0,18, 0.00,60.00,SummerDesignDay
9,671256315.8302355
14429,0.0
14637,0.0
14674,0.0
14711,573.8336135394909
14724,573.8336135394909
14875,499366994.6430985
15063,34939838.53021257
15185,0.0
15305,138644125.59058285
15317,113425217.27513921
2,1, 7,21, 0,19, 0.00,60.00,SummerDesignDay
9,659202484.3093038
14429,0.0
14637,0.0
14674,0.0
14711,151.1626362768983
14724,151.1626362768983
14875,411759620.68999577
15063,31341160.462712932
15185,0.0
15305,127794062.16447681
15317,103690901.51581264
2,1, 7,21, 0,20, 0.00,60.00,SummerDesignDay
9,388722838.74931854
14429,0.0
14637,0.0
14674,0.0
14711,0.0
14724,0.0
14875,3043236.291101237
15063,447805.5297675467
15185,0.0
15305,20729271.312893566
15317,2816039.56321379
2,1, 7,21, 0,21, 0.00,60.00,SummerDesignDay
9,68899840.80891353
14429,0.0
14637,0.0
14674,0.0
14711,0.0
14724,0.0
14875,2746685.8819162943
15063,391229.8575496607
15185,0.0
15305,20550838.100225106
15317,2730071.128281956
2,1, 7,21, 0,22, 0.00,60.00,SummerDesignDay
9,50430280.0130945
14429,0.0
14637,0.0
14674,0.0
14711,0.0
14724,0.0
14875,2535963.1472996706
15063,325642.9292317215
15185,0.0
15305,20551611.339283057
15317,2730818.720547083
2,1, 7,21, 0,23, 0.00,60.00,SummerDesignDay
9,47899773.0653442
14429,0.0
14637,0.0
14674,0.0
14711,0.0
14724,0.0
14875,2301259.505013438
15063,303811.0134054205
15185,0.0
15305,20437846.280033268
15317,2617097.1394458893
2,1, 7,21, 0,24, 0.00,60.00,SummerDesignDay
9,42972467.50507174
14429,0.0
14637,0.0
14674,0.0
14711,0.0
14724,0.0
14875,2092727.5638262597
15063,285887.5498382483
15185,0.0
15305,20318284.128676362
15317,2497585.4328165017
1,EDINBURGH.AP ANN HTG 99.6% CONDNS DB HVAC Sizing Pass 1,  55.95,  -3.37,   0.00,  41.10
2,1, 1,21, 0, 1, 0.00,60.00,WinterDesignDay
9,29784850.644447207
14429,422079536.63921165
14637,317885366.83394873
14674,317885366.83394873
14711,105263823.21629591
14724,105263823.21629591
14875,0.0
15063,6973648.760794472
15185,0.0
15305,2837816.0297698095
15317,0.0
2,1, 1,21, 0, 2, 0.00,60.00,WinterDesignDay
9,30490937.088879712
14429,434692369.6167946
14637,320231372.3251984
14674,320231372.3251984
14711,116203584.95892714
14724,116203584.95892714
14875,0.0
15063,7480595.821025826
15185,0.0
15305,3036955.4139709594
15317,0.0
2,1, 1,21, 0, 3, 0.00,60.00,WinterDesignDay
9,31240491.79984757
14429,446554265.1789959
14637,322327324.43027633
14674,322327324.43027633
14711,126489094.06975977
14724,126489094.06975977
14875,0.0
15063,8033153.282228814
15185,0.0
15305,3233952.6637358284
15317,0.0
2,1, 1,21, 0, 4, 0.00,60.00,WinterDesignDay
9,32021899.123693388
14429,458517203.92958343
14637,324150433.75489324
14674,324150433.75489324
14711,136441736.0033635
14724,136441736.0033635
14875,0.0
15063,8615481.217424968
15185,0.0
15305,3433032.052385493
15317,0.0
2,1, 1,21, 0, 5, 0.00,60.00,WinterDesignDay
9,32787772.98866012
14429,469247867.75058275
14637,325735296.2979541
14674,325735296.2979541
14711,146418082.72125933
14724,146418082.72125933
14875,0.0
15063,9178211.115999704
15185,0.0
15305,3636176.0187774757
15317,0.0
2,1, 1,21, 0, 6, 0.00,60.00,WinterDesignDay
9,33369829.79281174
14429,479556141.00651073
14637,327563348.4540794
14674,327563348.4540794
14711,155422758.74445784
14724,155422758.74445784
14875,0.0
15063,9604465.78081479
15185,0.0
15305,3791978.1581140263
15317,0.0
2,1, 1,21, 0, 7, 0.00,60.00,WinterDesignDay
9,33981445.484225705
14429,489990909.60185426
14637,329182582.49898237
14674,329182582.49898237
14711,163940345.62043938
14724,163940345.62043938
14875,0.0
15063,10045343.773757117
15185,0.0
15305,3962715.856585661
15317,0.0
2,1, 1,21, 0, 8, 0.00,60.00,WinterDesignDay
9,34570231.12498273
14429,499323354.7455995
14637,330712396.0344129
14674,330712396.0344129
14711,172328434.72905728
14724,172328434.72905728
14875,0.0
15063,10466882.25036441
15185,0.0
15305,4129963.0207353844
15317,0.0
2,1, 1,21, 0, 9, 0.00,60.00,WinterDesignDay
9,81789131.17338343
14429,1476470317.9002206
14637,592913843.9966785
14674,592913843.9966785
14711,901455807.4766151
14724,901455807.4766151
14875,0.0
15063,52174659.27301979
15185,0.0
15305,9641086.046480723
15317,0.0
2,1, 1,21, 0,10, 0.00,60.00,WinterDesignDay
9,64891088.73607072
14429,1169840793.2357113
14637,511330389.19653445
14674,511330389.19653445
14711,665993033.2431924
14724,665993033.2431924
14875,0.0
15063,36350256.22716835
15185,0.0
15305,8567446.655019457
15317,0.0
2,1, 1,21, 0,11, 0.00,60.00,WinterDesignDay
9,61710071.015783034
14429,1091600950.9006884
14637,495367568.39645815
14674,495367568.39645815
14711,604811731.027112
14724,604811731.027112
14875,0.0
15063,33585524.348623075
15185,0.0
15305,8151160.8132770285
15317,0.0
2,1, 1,21, 0,12, 0.00,60.00,WinterDesignDay
9,59187181.40766956
14429,1050046751.2522967
14637,487897023.315976
14674,487897023.315976
14711,569174060.8426174
14724,569174060.8426174
14875,0.0
15063,31178405.29001785
15185,0.0
15305,8035390.263768774
15317,0.0
2,1, 1,21, 0,13, 0.00,60.00,WinterDesignDay
9,56676740.42891109
14429,1017596853.8773129
14637,482627990.0567595
14674,482627990.0567595
14711,542095934.0392629
14724,542095934.0392629
14875,0.0
15063,28530944.79442309
15185,0.0
15305,8172409.780605073
15317,0.0
2,1, 1,21, 0,14, 0.00,60.00,WinterDesignDay
9,55006597.092344224
14429,989518963.2895827
14637,478626625.1637557
14674,478626625.1637557
14711,518845942.62637967
14724,518845942.62637967
14875,0.0
15063,26848521.70877006
15185,0.0
15305,8184689.529691244
15317,0.0
2,1, 1,21, 0,15, 0.00,60.00,WinterDesignDay
9,53887090.77427395
14429,965584506.2589281
14637,475279479.9186676
14674,475279479.9186676
14711,498490149.4211568
14724,498490149.4211568
14875,0.0
15063,25831616.055549636
15185,0.0
15305,8082088.864841379
15317,0.0
2,1, 1,21, 0,16, 0.00,60.00,WinterDesignDay
9,53075233.80262169
14429,944500572.6292391
14637,472244890.2406297
14674,472244890.2406297
14711,480672394.1207303
14724,480672394.1207303
14875,0.0
15063,25188205.839519776
15185,0.0
15305,7913642.109219002
15317,0.0
2,1, 1,21, 0,17, 0.00,60.00,WinterDesignDay
9,52389229.393042535
14429,926667228.2216386
14637,469778752.16717076
14674,469778752.16717076
14711,465171636.28213274
14724,465171636.28213274
14875,0.0
15063,24663265.745405708
15185,0.0
15305,7752577.793753896
15317,0.0
2,1, 1,21, 0,18, 0.00,60.00,WinterDesignDay
9,51636081.49528702
14429,912190921.2775894
14637,467567494.26217383
14674,467567494.26217383
14711,451914748.7499511
14724,451914748.7499511
14875,0.0
15063,23973696.281402137
15185,0.0
15305,7688999.360001958
15317,0.0
2,1, 1,21, 0,19, 0.00,60.00,WinterDesignDay
9,50895964.3898264
14429,897925821.5026877
14637,465571989.711256
14674,465571989.711256
14711,440476189.638692
14724,440476189.638692
14875,0.0
15063,23253428.826637454
15185,0.0
15305,7669149.709306023
15317,0.0
2,1, 1,21, 0,20, 0.00,60.00,WinterDesignDay
9,20870593.394617625
14429,115782351.86780895
14637,231098181.23035955
14674,231098181.23035955
14711,7810609.990873961
14724,7810609.990873961
14875,0.0
15063,579866.4304616916
15185,0.0
15305,317341.11027300195
15317,0.0
2,1, 1,21, 0,21, 0.00,60.00,WinterDesignDay
9,23803081.653821938
14429,408516608.5638983
14637,297551746.363059
14674,297551746.363059
14711,37090170.401224926
14724,37090170.401224926
14875,0.0
15063,2712276.378135307
15185,0.0