Program Version,EnergyPlus, Version 23.2.0-7636e6b3e9, YMD=2025.10.15 11:05
1,5,Environment Title[],Latitude[deg],Longitude[deg],Time Zone[],Elevation[m]
2,8,Day of Simulation[],Month[],Day of Month[],DST Indicator[1=yes 0=no],Hour[],StartMinute[],EndMinute[],DayType
3,5,Cumulative Day of Simulation[],Month[],Day of Month[],DST Indicator[1=yes 0=no],DayType  ! When Daily Meters Requested
4,2,Cumulative Days of Simulation[],Month[]  ! When Monthly Meters Requested
5,1,Cumulative Days of Simulation[] ! When Run Period Meters Requested
6,1,Calendar Year of Simulation[] ! When Annual Meters Requested
14875,1,CoolingCoils:EnergyTransfer [J] !Hourly
14711,1,HeatingCoils:EnergyTransfer [J] !Hourly
15063,1,Electricity:HVAC [J] !Hourly
15305,1,Electricity:Plant [J] !Hourly
14637,1,Baseboard:EnergyTransfer [J] !Hourly
9,1,Electricity:Facility [J] !Hourly
14429,1,DistrictHeatingWater:Facility [J] !Hourly
15185,1,DistrictCooling:Facility [J] !Hourly
15317,1,Cooling:Electricity [J] !Hourly
End of Data Dictionary
1,EDINBURGH.AP ANN CLG .4% CONDNS DB=>MWB HVAC Sizing Pass 1,  55.95,  -3.37,   0.00,  41.10
2,1, 7,21, 0, 1, 0.00,60.00,SummerDesignDay
9,41527309.87941612
14429,0.0
14637,0.0
14711,0.0
14875,2547483.5647053802
15063,345087.0076933614
15185,0.0
15305,21208837.01783983
15317,2779354.733210016
2,1, 7,21, 0, 2, 0.00,60.00,SummerDesignDay
9,41380171.99384475
14429,0.0
14637,0.0
14711,0.0
14875,2332833.7672208427
15063,325400.5047529693
15185,0.0
15305,21081385.63520884
15317,2651964.4242184875
2,1, 7,21, 0, 3, 0.00,60.00,SummerDesignDay
9,41247080.21105492
14429,0.0
14637,0.0
14711,0.0
14875,2134080.4773363126
15063,306448.3326326381
15185,0.0
15305,20967246.024539344
15317,2537882.264616216
2,1, 7,21, 0, 4, 0.00,60.00,SummerDesignDay
9,41135111.66848978
14429,0.0
14637,0.0
14711,0.0
14875,1951525.8636374618
15063,288354.2735010223
15185,0.0
15305,20873371.541105814
15317,2444061.1260501076
2,1, 7,21, 0, 5, 0.00,60.00,SummerDesignDay
9,41019398.19291023
14429,147516.1364281873
14637,1055997.1285267966
14711,0.0
14875,1786193.6140947298
15063,271262.93875455385
15185,0.0
15305,20774749.40027274
15317,2344508.9183311886
2,1, 7,21, 0, 6, 0.00,60.00,SummerDesignDay
9,40958173.85389773
14429,630741.424792651
14637,4313390.075013168
14711,0.0
14875,1617829.806731299
15063,238586.88398461402
15185,0.0
15305,20746201.11603018
15317,2312960.6385025964
2,1, 7,21, 0, 7, 0.00,60.00,SummerDesignDay
9,50188569.26594955
14429,151327.91744270799
14637,991262.9171156008
14711,0.0
14875,1462839.2015518206
15063,198131.68530683577
15185,0.0
15305,20720361.589125916
15317,2290202.0517497337
2,1, 7,21, 0, 8, 0.00,60.00,SummerDesignDay
9,511930703.5730364
14429,0.0
14637,0.0
14711,0.0
14875,1426664.5312575498
15063,186810.3429982748
15185,0.0
15305,20705266.027372956
15317,2276016.77605753
2,1, 7,21, 0, 9, 0.00,60.00,SummerDesignDay
9,564807248.265371
14429,0.0
14637,0.0
14711,896.3771633362435
14875,85940268.94769844
15063,9306756.18069163
15185,0.0
15305,62066954.9093401
15317,41113732.24981772
2,1, 7,21, 0,10, 0.00,60.00,SummerDesignDay
9,649881499.5594435
14429,0.0
14637,0.0
14711,97.65678299819936
14875,227999846.40962088
15063,17605166.053667437
15185,0.0
15305,116504679.24417895
15317,93468986.22134686
2,1, 7,21, 0,11, 0.00,60.00,SummerDesignDay
9,664511410.5086697
14429,0.0
14637,0.0
14711,0.0
14875,329352617.716024
15063,23680945.796191685
15185,0.0
15305,122649767.425793
15317,98648565.48028742
2,1, 7,21, 0,12, 0.00,60.00,SummerDesignDay
9,680525376.5549107
14429,0.0
14637,0.0
14711,0.0
14875,401992956.06499404
15063,27309783.052032173
15185,0.0
15305,128133116.05123396
15317,103502000.345573
2,1, 7,21, 0,13, 0.00,60.00,SummerDesignDay
9,680597400.3567295
14429,0.0
14637,0.0
14711,0.0
14875,402673398.80803716
15063,26488765.632213503
15185,0.0
15305,129026157.2728712
15317,104407624.633702
2,1, 7,21, 0,14, 0.00,60.00,SummerDesignDay
9,685551053.9369284
14429,0.0
14637,0.0
14711,0.0
14875,424230342.30179536
15063,28857592.528561346
15185,0.0
15305,131610983.95672229
15317,106861859.16686565
2,1, 7,21, 0,15, 0.00,60.00,SummerDesignDay
9,694715501.0822159
14429,0.0
14637,0.0
14711,0.0
14875,490022414.0128816
15063,33018976.351034082
15185,0.0
15305,139008957.25221136
15317,113385889.45048675
2,1, 7,21, 0,16, 0.00,60.00,SummerDesignDay
9,683712866.8583639
14429,0.0
14637,0.0
14711,0.0
14875,509856048.15782374
15063,34069157.4174684
15185,0.0
15305,141056785.09732103
15317,115057481.96927717
2,1, 7,21, 0,17, 0.00,60.00,SummerDesignDay
9,691097709.7644453
14429,0.0
14637,0.0
14711,0.0
14875,513836419.2851525
15063,34716069.583165556
15185,0.0
15305,140892935.67274567
15317,114723166.86702421
2,1, 7,21, 0,18, 0.00,60.00,SummerDesignDay
9,650526466.4191926
14429,0.0
14637,0.0
14711,0.0
14875,419989108.39327353
15063,29431966.094784282
15185,0.0
15305,130055873.12174338
15317,105030545.68187031
2,1, 7,21, 0,19, 0.00,60.00,SummerDesignDay
9,639777104.3393588
14429,0.0
14637,0.0
14711,0.0
14875,337507451.46808857
15063,23565018.529202178
15185,0.0
15305,122778548.63481736
15317,98471605.59459414
2,1, 7,21, 0,20, 0.00,60.00,SummerDesignDay
9,378079108.65449417
14429,0.0
14637,0.0
14711,0.0
14875,3840228.755592402
15063,606870.5409976322
15185,0.0
15305,21429443.148438483
15317,2895791.9822450355
2,1, 7,21, 0,21, 0.00,60.00,SummerDesignDay
9,58380725.44570026
14429,0.0
14637,0.0
14711,0.0
14875,3544907.716396549
15063,574344.9357807833
15185,0.0
15305,21351574.600380115
15317,2922056.296555103
2,1, 7,21, 0,22, 0.00,60.00,SummerDesignDay
9,51463589.54652345
14429,0.0
14637,0.0
14711,0.0
14875,3306719.0251935776
15063,531847.5909657888
15185,0.0
15305,21378716.21097794
15317,2949215.7495762478
2,1, 7,21, 0,23, 0.00,60.00,SummerDesignDay
9,49091735.01826474
14429,0.0
14637,0.0
14711,0.0
14875,3120899.763974375
15063,444902.2797093255
15185,0.0
15305,21488716.966649912
15317,3059136.290042281
2,1, 7,21, 0,24, 0.00,60.00,SummerDesignDay
9,44108399.46290379
14429,0.0
14637,0.0
14711,0.0
14875,2784386.3024584586
15063,365879.1090219424
15185,0.0
15305,21374224.52732473
15317,2944676.2754747407
1,EDINBURGH.AP ANN CLG .4% CONDNS DP=>MDB HVAC Sizing Pass 1,  55.95,  -3.37,   0.00,  41.10
2,1, 7,21, 0, 1, 0.00,60.00,SummerDesignDay
9,41121124.70660663
14429,0.0
14637,0.0
14711,0.0
14875,1957676.273378118
15063,287569.3464511926
15185,0.0
15305,20860169.506272487
15317,2430850.2155631976
2,1, 7,21, 0, 2, 0.00,60.00,SummerDesignDay
9,41029420.19889276
14429,0.0
14637,0.0
14711,0.0
14875,1777085.0105648397
15063,265887.2757836417
15185,0.0
15305,20790147.06922618
15317,2360873.0242012464
2,1, 7,21, 0, 3, 0.00,60.00,SummerDesignDay
9,40937041.18267897
14429,6061.575223851839
14637,15837.522956086927
14711,0.0
14875,1600807.6422863216
15063,229544.75912993035
15185,0.0
15305,20734110.569666103
15317,2304834.91726676
2,1, 7,21, 0, 4, 0.00,60.00,SummerDesignDay
9,40884087.25671503
14429,2546619.6418361263
14637,6560197.018847011
14711,0.0
14875,1418490.3326119499
15063,178598.1129271884
15185,0.0
15305,20732103.289904907
15317,2296814.1613890813
2,1, 7,21, 0, 5, 0.00,60.00,SummerDesignDay
9,40797489.80423455
14429,5112538.673339623
14637,12636770.647847671
14711,0.0
14875,1282690.4948023767
15063,148720.49095807507
15185,0.0
15305,20675383.45939354
15317,2234539.8706597043
2,1, 7,21, 0, 6, 0.00,60.00,SummerDesignDay
9,40706869.25844661
14429,6388025.5610417025
14637,14947701.759945117
14711,0.0
14875,1179303.1260080163
15063,138895.33070599803
15185,0.0
15305,20594588.073857676
15317,2151671.672226879
2,1, 7,21, 0, 7, 0.00,60.00,SummerDesignDay
9,49927999.94498743
14429,5145634.043393325
14637,11476108.544569226
14711,0.0
14875,1085767.5400767825
15063,129597.97181038644
15185,0.0
15305,20528325.981660254
15317,2088635.7505032036
2,1, 7,21, 0, 8, 0.00,60.00,SummerDesignDay
9,511659342.53636324
14429,0.0
14637,0.0
14711,0.0
14875,1055911.8873279751
15063,127359.01215037663
15185,0.0
15305,20493356.321547627
15317,2064191.304451976
2,1, 7,21, 0, 9, 0.00,60.00,SummerDesignDay
9,548159500.0103714
14429,0.0
14637,0.0
14711,2625.2351762194694
14875,56064689.54002279
15063,7330484.415441825
15185,0.0
15305,47395478.41959045
15317,27206643.793586712
2,1, 7,21, 0,10, 0.00,60.00,SummerDesignDay
9,629163475.0372078
14429,0.0
14637,0.0
14711,2081.9188035720827
14875,167340706.71769825
15063,13716098.150599048
15185,0.0
15305,99675722.6250116
15317,77216465.46283405
2,1, 7,21, 0,11, 0.00,60.00,SummerDesignDay
9,660812827.4965334
14429,0.0
14637,0.0
14711,187.72087522279256
14875,261869440.1624658
15063,19009736.718621176
15185,0.0
15305,123622393.49122703
15317,100209338.2087615
2,1, 7,21, 0,12, 0.00,60.00,SummerDesignDay
9,673057864.3104757
14429,0.0
14637,0.0
14711,0.0
14875,335158028.47313106
15063,23433074.336473368
15185,0.0
15305,124542312.52235758
15317,101020485.8411416
2,1, 7,21, 0,13, 0.00,60.00,SummerDesignDay
9,671622687.1585878
14429,0.0
14637,0.0
14711,0.0
14875,334795038.3351054
15063,21671511.910477623
15185,0.0
15305,124868697.79646543
15317,101401472.13560677
2,1, 7,21, 0,14, 0.00,60.00,SummerDesignDay
9,675666992.0834275
14429,0.0
14637,0.0
14711,0.0
14875,368860331.85583854
15063,23501578.82722745
15185,0.0
15305,127082935.8045555
15317,103355234.05931027
2,1, 7,21, 0,15, 0.00,60.00,SummerDesignDay
9,687264952.5032661
14429,0.0
14637,0.0
14711,0.0
14875,444393012.3615508
15063,29448855.529941212
15185,0.0
15305,135128529.49435425
15317,110469729.47770157
2,1, 7,21, 0,16, 0.00,60.00,SummerDesignDay
9,676677038.7478025
14429,0.0
14637,0.0
14711,361.82186608297684
14875,465193964.614941
15063,30806288.436651953
15185,0.0
15305,137283825.96757594
15317,112334926.45488812
2,1, 7,21, 0,17, 0.00,60.00,SummerDesignDay
9,684640536.5176493
14429,0.0
14637,0.0
14711,159.69894839509803
14875,471881176.54790473
15063,31601177.97252889
15185,0.0
15305,137550654.03658637
15317,112466432.31915152
2,1, 7,21, 0,18, 0.00,60.00,SummerDesignDay
9,642954528.4095311
14429,0.0
14637,0.0
14711,38.92026353555037
14875,376475232.9801045
15063,24558909.633307368
15185,0.0
15305,127356991.57355866
15317,103113887.48669276
2,1, 7,21, 0,19, 0.00,60.00,SummerDesignDay
9,637702692.9209394
14429,0.0
14637,0.0
14711,469.0090453927322
14875,296353515.2716424
15063,20467732.18521782
15185,0.0
15305,123801423.56038229
15317,99940848.58718297
2,1, 7,21, 0,20, 0.00,60.00,SummerDesignDay
9,377824574.47551334
14429,0.0
14637,0.0
14711,0.0
14875,3149350.7949755816
15063,431112.5042338085
15185,0.0
15305,21350667.006221496
15317,2805674.3343770695
2,1, 7,21, 0,21, 0.00,60.00,SummerDesignDay
9,58077581.60019102
14429,0.0
14637,0.0
14711,0.0
14875,2891354.912055606
15063,379994.0576332027
15185,0.0
15305,21242781.633018453
15317,2813239.577584061
2,1, 7,21, 0,22, 0.00,60.00,SummerDesignDay
9,51084539.02091205
14429,0.0
14637,0.0
14711,0.0
14875,2640283.167147422
15063,348467.90715764015
15185,0.0
15305,21183045.36917468
15317,2753535.047045509
2,1, 7,21, 0,23, 0.00,60.00,SummerDesignDay
9,48556006.211302385
14429,0.0
14637,0.0
14711,0.0
14875,2391176.8537504505
15063,327787.8961444208
15185,0.0
15305,21070102.54325246
15317,2640658.9915833897
2,1, 7,21, 0,24, 0.00,60.00,SummerDesignDay
9,43642244.65229443
14429,0.0
14637,0.0
14711,0.0
14875,2174030.962856125
15063,308205.23168207344
15185,0.0
15305,20965743.594055224
15317,2536361.6713577383
1,EDINBURGH.AP ANN CLG .4% CONDNS ENTH=>MDB HVAC Sizing Pass 1,  55.95,  -3.37,   0.00,  41.10
2,1, 7,21, 0, 1, 0.00,60.00,SummerDesignDay
9,41685101.86356208
14429,0.0
14637,0.0
14711,0.0
14875,2759025.803084339
15063,361683.0359338435
15185,0.0
15305,21350032.973745294
15317,2920496.4415333266
2,1, 7,21, 0, 2, 0.00,60.00,SummerDesignDay
9,41529343.69844375
14429,0.0
14637,0.0
14711,0.0
14875,2561176.7357019326
15063,344513.7854314944
15185,0.0
15305,21211444.059129313
15317,2781960.6748959203
2,1, 7,21, 0, 3, 0.00,60.00,SummerDesignDay
9,41405219.70020309
14429,0.0
14637,0.0
14711,0.0
14875,2382522.6266618688
15063,328142.98429848434
15185,0.0
15305,21103690.862021662
15317,2674256.9501809394
2,1, 7,21, 0, 4, 0.00,60.00,SummerDesignDay
9,41292553.10749908
14429,0.0
14637,0.0
14711,0.0
14875,2214891.438277027
15063,312282.1538232605
15185,0.0
15305,21006885.099792883
15317,2577498.274391867
2,1, 7,21, 0, 5, 0.00,60.00,SummerDesignDay
9,41197328.380769394
14429,0.0
14637,0.0
14711,0.0
14875,2054059.7138768516
15063,296674.4963346782
15185,0.0
15305,20927268.030551773
15317,2497926.740282185
2,1, 7,21, 0, 6, 0.00,60.00,SummerDesignDay
9,41100635.52046113
14429,0.0
14637,0.0
14711,0.0
14875,1905110.887799807
15063,281738.9763407394
15185,0.0
15305,20845510.690237448
15317,2416211.8447610317
2,1, 7,21, 0, 7, 0.00,60.00,SummerDesignDay
9,50333939.70530668
14429,0.0
14637,0.0
14711,0.0
14875,1779852.436778456
15063,264920.2925852007
15185,0.0
15305,20798943.421204682
15317,2369671.238187249
2,1, 7,21, 0, 8, 0.00,60.00,SummerDesignDay
9,512102052.0485735
14429,0.0
14637,0.0
14711,0.0
14875,1750017.8347807925
15063,246238.42388152235
15185,0.0
15305,20817186.42202671
15317,2387887.860276795
2,1, 7,21, 0, 9, 0.00,60.00,SummerDesignDay
9,587927472.6982889
14429,0.0
14637,0.0
14711,1935.5871526932333
14875,128458919.66398834
15063,11639126.960153926
15185,0.0
15305,82854808.56279586
15317,61043903.282144144
2,1, 7,21, 0,10, 0.00,60.00,SummerDesignDay
9,660395705.3901219
14429,0.0
14637,0.0
14711,152.50223851891516
14875,289605902.64415693
15063,20956319.97429859
15185,0.0
15305,123667731.1542264
15317,100112698.07756715
2,1, 7,21, 0,11, 0.00,60.00,SummerDesignDay
9,671569164.7428979
14429,0.0
14637,0.0
14711,0.0
14875,378772725.92448556
15063,25998647.40507007
15185,0.0
15305,127389820.05114275
15317,103418663.00779742
2,1, 7,21, 0,12, 0.00,60.00,SummerDesignDay
9,688445122.635918
14429,0.0
14637,0.0
14711,0.0
14875,439975066.97048455
15063,28910014.3290849
15185,0.0
15305,134452630.85518855
15317,109803917.77663852
2,1, 7,21, 0,13, 0.00,60.00,SummerDesignDay
9,687646080.8178587
14429,0.0
14637,0.0
14711,0.0
14875,433707306.0537973
15063,28099068.180494186
15185,0.0
15305,134464535.1857199
15317,109907418.18519159
2,1, 7,21, 0,14, 0.00,60.00,SummerDesignDay
9,691396381.7411577
14429,0.0
14637,0.0
14711,0.0
14875,450199446.4618976
15063,29766599.656261154
15185,0.0
15305,136547304.63325185
15317,111894918.42089787
2,1, 7,21, 0,15, 0.00,60.00,SummerDesignDay
9,699861432.7531465
14429,0.0
14637,0.0
14711,0.0
14875,512936481.1546327
15063,33287310.483038954
15185,0.0
15305,143886554.79113698
15317,118384524.87123115
2,1, 7,21, 0,16, 0.00,60.00,SummerDesignDay
9,688615967.5314246
14429,0.0
14637,0.0
14711,326.3624466012889
14875,529045049.0502577
15063,34423542.872945264
15185,0.0
15305,145605500.31490487
15317,119853346.83837777
2,1, 7,21, 0,17, 0.00,60.00,SummerDesignDay
9,696083346.1073532
14429,0.0
14637,0.0
14711,60.36121347054787
14875,531780234.1756413
15063,35204757.27115912
15185,0.0
15305,145389884.3276599
15317,119563595.00652957
2,1, 7,21, 0,18, 0.00,60.00,SummerDesignDay
9,655702959.0276862
14429,0.0
14637,0.0
14711,279.2493281886819
14875,438798122.7518293
15063,30166308.57819437
15185,0.0
15305,134498023.2468269
15317,109726130.95336606
2,1, 7,21, 0,19, 0.00,60.00,SummerDesignDay
9,643287894.4069425
14429,0.0
14637,0.0
14711,122.43127532213938
14875,356168243.76139915
15063,24301872.1343549
15185,0.0
15305,125552485.09724821
15317,101536237.5776925
2,1, 7,21, 0,20, 0.00,60.00,SummerDesignDay
9,378259439.2852981
14429,0.0
14637,0.0
14711,0.0
14875,3990927.8257581517
15063,618578.137380767
15185,0.0
15305,21598066.182859328
15317,3062321.9101737184
2,1, 7,21, 0,21, 0.00,60.00,SummerDesignDay
9,58539602.407598615
14429,0.0
14637,0.0
14711,0.0
14875,3712955.257289688
15063,588520.4343527502
15185,0.0
15305,21496276.0637065
15317,3066734.288530147
2,1, 7,21, 0,22, 0.00,60.00,SummerDesignDay
9,51549573.42554282
14429,0.0
14637,0.0
14711,0.0
14875,3468151.5647022217
15063,561181.6685822847
15185,0.0
15305,21435366.01238081
15317,3005871.7844590773
2,1, 7,21, 0,23, 0.00,60.00,SummerDesignDay
9,49171577.916522264
14429,0.0
14637,0.0
14711,0.0
14875,3323989.7610503724
15063,508583.3197956451
15185,0.0
15305,21504878.82482112
15317,3075342.065567526
2,1, 7,21, 0,24, 0.00,60.00,SummerDesignDay
9,44304515.07295482
14429,0.0
14637,0.0
14711,0.0
14875,3073134.296858515
15063,428670.68771047686
15185,0.0
15305,21507548.55868721
15317,3077976.4674196164
1,EDINBURGH.AP ANN CLG .4% CONDNS WB=>MDB HVAC Sizing Pass 1,  55.95,  -3.37,   0.00,  41.10
2,1, 7,21, 0, 1, 0.00,60.00,SummerDesignDay
9,41418481.52814682
14429,0.0
14637,0.0
14711,0.0
14875,2404370.8824580954
15063,330755.5723130781
15185,0.0
15305,21114340.101950802
15317,2684897.734235308
2,1, 7,21, 0, 2, 0.00,60.00,SummerDesignDay
9,41288987.554788694
14429,0.0
14637,0.0
14711,0.0
14875,2202959.40682418
15063,312135.3922018254
15185,0.0
15305,21003466.30870393
15317,2574081.106728287
2,1, 7,21, 0, 3, 0.00,60.00,SummerDesignDay
9,41172368.70932877
14429,0.0
14637,0.0
14711,0.0
14875,2016627.3207883465
15063,294154.7473567725
15185,0.0
15305,20904828.10808906
15317,2475496.868721048
2,1, 7,21, 0, 4, 0.00,60.00,SummerDesignDay
9,41066302.49283625
14429,0.0
14637,0.0
14711,0.0
14875,1847243.0669702075
15063,277116.4326343984
15185,0.0
15305,20815800.206318915
15317,2386518.6058178092
2,1, 7,21, 0, 5, 0.00,60.00,SummerDesignDay
9,40979060.55534479
14429,0.0
14637,0.0
14711,0.0
14875,1688355.2713279752
15063,256784.7830536896
15185,0.0
15305,20748889.918408167
15317,2319647.4274958405
2,1, 7,21, 0, 6, 0.00,60.00,SummerDesignDay
9,40903620.913131654
14429,63346.392660074656
14637,1269813.1986278405
14711,0.0
14875,1520836.621010738
15063,216728.39129777666
15185,0.0
15305,20713506.66795094
15317,2283086.936352689
2,1, 7,21, 0, 7, 0.00,60.00,SummerDesignDay
9,50144701.502790496
14429,6700.8928968824075
14637,129401.44805468319
14711,0.0
14875,1367870.6777295861
15063,167985.6144453858
15185,0.0
15305,20706639.896828316
15317,2277270.6353861885
2,1, 7,21, 0, 8, 0.00,60.00,SummerDesignDay
9,511881757.338914
14429,0.0
14637,0.0
14711,0.0
14875,1326989.0473809883
15063,152964.6669238439
15185,0.0
15305,20690165.469324883
15317,2260901.8434765385
2,1, 7,21, 0, 9, 0.00,60.00,SummerDesignDay
9,563302336.955178
14429,0.0
14637,0.0
14711,3229.2993353775837
14875,83424359.2077944
15063,8979428.571051091
15185,0.0
15305,60889371.20878778
15317,39878485.54609878
2,1, 7,21, 0,10, 0.00,60.00,SummerDesignDay
9,649761782.2229574
14429,0.0
14637,0.0
14711,1292.5305721243176
14875,217568782.27864903
15063,16866736.660691805
15185,0.0
15305,117123391.3006684
15317,93998186.39090677
2,1, 7,21, 0,11, 0.00,60.00,SummerDesignDay
9,665090619.9381672
14429,0.0
14637,0.0
14711,0.0
14875,317039760.94031924
15063,22632819.502544574
15185,0.0
15305,124277103.14893757
15317,100761034.18215752
2,1, 7,21, 0,12, 0.00,60.00,SummerDesignDay
9,680943144.8317573
14429,0.0
14637,0.0
14711,0.0
14875,393003912.9581648
15063,26582311.12744705
15185,0.0
15305,129278356.25266555
15317,105261755.55772011
2,1, 7,21, 0,13, 0.00,60.00,SummerDesignDay
9,681074492.7695235
14429,0.0
14637,0.0
14711,0.0
14875,396344285.64754397
15063,25648448.849318296
15185,0.0
15305,130343566.46856028
15317,106299633.87623489
2,1, 7,21, 0,14, 0.00,60.00,SummerDesignDay
9,686078631.3911096
14429,0.0
14637,0.0
14711,0.0
14875,424654553.89992136
15063,27197792.77207203
15185,0.0
15305,133798361.16739272
15317,109400353.63161816
2,1, 7,21, 0,15, 0.00,60.00,SummerDesignDay
9,695881626.2782934
14429,0.0
14637,0.0
14711,0.0
14875,490714207.7365228
15063,31974612.852885492
15185,0.0
15305,141219445.9464375
15317,116083588.94401169
2,1, 7,21, 0,16, 0.00,60.00,SummerDesignDay
9,684988626.9545635
14429,0.0
14637,0.0
14711,396.4174642230206
14875,510764428.37968206
15063,32971575.469115987
15185,0.0
15305,143430127.14187306
15317,117923205.6366258
2,1, 7,21, 0,17, 0.00,60.00,SummerDesignDay
9,692513970.1932608
14429,0.0
14637,0.0
14711,170.19301299865563
14875,515512611.2405734
15063,33522213.84350633
15185,0.0
15305,143503051.8412202
15317,117800002.38150689
2,1, 7,21, 0,18, 0.00,60.00,SummerDesignDay
9,651144198.7902658
14429,0.0
14637,0.0
14711,573.8335187897094
14875,414050723.89528954
15063,28544666.893843822
15185,0.0
15305,131560904.69375704
15317,107149926.55042349
2,1, 7,21, 0,19, 0.00,60.00,SummerDesignDay
9,640658454.1524401
14429,0.0
14637,0.0
14711,151.16251269317473
14875,332663799.9911933
15063,22683162.430518985
15185,0.0
15305,124541754.54658179
15317,100643396.84643751
2,1, 7,21, 0,20, 0.00,60.00,SummerDesignDay
9,378079965.659831
14429,0.0
14637,0.0
14711,0.0
14875,3694374.1572821634
15063,583875.7421209866
15185,0.0
15305,21453294.952651918
15317,2916265.5201601926
2,1, 7,21, 0,21, 0.00,60.00,SummerDesignDay
9,58343923.7457962
14429,0.0
14637,0.0
14711,0.0
14875,3408887.2228661655
15063,539675.1200500554
15185,0.0
15305,21349442.71620678
15317,2919941.3833788745
2,1, 7,21, 0,22, 0.00,60.00,SummerDesignDay
9,51437660.684890866
14429,0.0
14637,0.0
14711,0.0
14875,3181222.4708485203
15063,461480.9785362808
15185,0.0
15305,21423153.961774863
15317,2993608.050765325
2,1, 7,21, 0,23, 0.00,60.00,SummerDesignDay
9,48930719.35311617
14429,0.0
14637,0.0
14711,0.0
14875,2882679.6615623147
15063,370682.7170367136
15185,0.0
15305,21401920.864173952
15317,2972351.2745833406
2,1, 7,21, 0,24, 0.00,60.00,SummerDesignDay
9,43968445.83888591
14429,0.0
14637,0.0
14711,0.0
14875,2626617.3149473895
15063,350282.2195837475
15185,0.0
15305,21249867.792745035
15317,2820364.0378406667
1,EDINBURGH.AP ANN HTG 99.6% CONDNS DB HVAC Sizing Pass 1,  55.95,  -3.37,   0.00,  41.10
2,1, 1,21, 0, 1, 0.00,60.00,WinterDesignDay
9,31009979.50700488
14429,443525134.19557315
14637,320252305.87571764
14711,125210204.30442813
14875,0.0
15063,7784101.860527859
15185,0.0
15305,3252491.7925940827
15317,0.0
2,1, 1,21, 0, 2, 0.00,60.00,WinterDesignDay
9,31894414.81322454
14429,457557909.7352102
14637,322576558.8357231
14711,137237704.91865242
14875,0.0
15063,8434951.934607957
15185,0.0
15305,3486077.024733643
15317,0.0
2,1, 1,21, 0, 3, 0.00,60.00,WinterDesignDay
9,32802795.42328148
14429,470635023.0381953
14637,324598295.95921195
14711,148821718.14879042
14875,0.0
15063,9120413.343565522
15185,0.0
15305,3708996.225833024
15317,0.0
2,1, 1,21, 0, 4, 0.00,60.00,WinterDesignDay
9,33585127.8977582
14429,483127027.1288765
14637,326473432.46768713
14711,159776556.88310635
14875,0.0
15063,9689327.125459792
15185,0.0
15305,3922414.918415466
15317,0.0
2,1, 1,21, 0, 5, 0.00,60.00,WinterDesignDay
9,34204852.645293064
14429,494466726.6195368
14637,328319252.6817462
14711,169642911.7532342
14875,0.0
15063,10138749.823152764
15185,0.0
15305,4092716.9682573667
15317,0.0
2,1, 1,21, 0, 6, 0.00,60.00,WinterDesignDay
9,34922976.08029936
14429,505911045.4465232
14637,330163077.346599
14711,179394257.88880956
14875,0.0
15063,10649819.009535145
15185,0.0
15305,4299771.216881277
15317,0.0
2,1, 1,21, 0, 7, 0.00,60.00,WinterDesignDay
9,35526550.913882464
14429,516482908.2726311
14637,331762563.1150218
14711,188496769.4689903
14875,0.0
15063,11079978.820151733
15185,0.0
15305,4473186.239847792
15317,0.0
2,1, 1,21, 0, 8, 0.00,60.00,WinterDesignDay
9,36226688.551251836
14429,526802952.1407235
14637,333393461.39914864
14711,197683261.97672066
14875,0.0
15063,11578516.114342904
15185,0.0
15305,4674786.583025993
15317,0.0
2,1, 1,21, 0, 9, 0.00,60.00,WinterDesignDay
9,83743341.20443082
14429,1506810494.7918463
14637,596552202.7806499
14711,931871463.0024972
14875,0.0
15063,53872636.19059991
15185,0.0
15305,9897319.159947952
15317,0.0
2,1, 1,21, 0,10, 0.00,60.00,WinterDesignDay
9,67067626.6874829
14429,1209384047.714279
14637,514670692.9931332
14711,701363024.0218867
14875,0.0
15063,38210214.05265107
15185,0.0
15305,8884026.780948892
15317,0.0
2,1, 1,21, 0,11, 0.00,60.00,WinterDesignDay
9,63358304.07257248
14429,1128922909.45535
14637,498592742.3030556
14711,639096416.1973227
14875,0.0
15063,34829719.3175706
15185,0.0
15305,8555198.901118942
15317,0.0
2,1, 1,21, 0,12, 0.00,60.00,WinterDesignDay
9,61334050.24464306
14429,1084480588.4549215
14637,490865206.70754904
14711,602039077.3216527
14875,0.0
15063,33053957.495433647
15185,0.0
15305,8306706.895326484
15317,0.0
2,1, 1,21, 0,13, 0.00,60.00,WinterDesignDay
9,59238671.80100266
14429,1051258062.3201008
14637,485744909.4007087
14711,573787997.6165096
14875,0.0
15063,31050762.86811191
15185,0.0
15305,8214523.079007819
15317,0.0
2,1, 1,21, 0,14, 0.00,60.00,WinterDesignDay
9,57435887.15862715
14429,1025186946.0100837
14637,481697001.54948926
14711,550304437.898512
14875,0.0
15063,29148099.906517126
15185,0.0
15305,8314401.3982270975
15317,0.0
2,1, 1,21, 0,15, 0.00,60.00,WinterDesignDay
9,55830525.91421756
14429,1000571441.369081
14637,478137261.46270376
14711,530217319.3217008
14875,0.0
15063,27469746.906465735
15185,0.0
15305,8387393.153868884
15317,0.0
2,1, 1,21, 0,16, 0.00,60.00,WinterDesignDay
9,54563141.52763722
14429,979436753.7030225
14637,475281811.3404935
14711,512668641.43908775
14875,0.0
15063,26221306.6641378
15185,0.0
15305,8368449.009616483
15317,0.0
2,1, 1,21, 0,17, 0.00,60.00,WinterDesignDay
9,53834823.8118498
14429,960877985.9182982
14637,472581379.21486247
14711,496963125.9909492
14875,0.0
15063,25645042.626925144
15185,0.0
15305,8216395.331041726
15317,0.0
2,1, 1,21, 0,18, 0.00,60.00,WinterDesignDay
9,53229768.92762037
14429,945152457.4920743
14637,470462390.9279634
14711,483240186.6098431
14875,0.0
15063,25184367.17562507
15185,0.0
15305,8072015.898112352
15317,0.0
2,1, 1,21, 0,19, 0.00,60.00,WinterDesignDay
9,52696265.47676411
14429,931335652.988316
14637,468460473.81377083
14711,471275123.25203973
14875,0.0
15063,24778520.97687303
15185,0.0
15305,7944358.6460081525
15317,0.0
2,1, 1,21, 0,20, 0.00,60.00,WinterDesignDay
9,20824858.412964713
14429,121866023.50516787
14637,231846385.8134599
14711,7813356.00172843
14875,0.0
15063,522439.1203861964
15185,0.0
15305,329033.43869557866
15317,0.0
2,1, 1,21, 0,21, 0.00,60.00,WinterDesignDay
9,25023436.065608725
14429,433558098.33107734
14637,298863626.12431353
14711,51883006.78965157
14875,0.0
15063,3572255.804500565
15185,0.0
15305,1477794.4072252242
15317,0.0
2,1, 1,21, 0,22, 0.00,60.00,WinterDesignDay
9,27334419.45585796
14429,398203911.2500205
14637,307657359.9762609
14711,77365950.56051603
14875,0.0
15063,5214355.321618279
15185,0.0
15305,2146678.2803567476
15317,0.0
2,1, 1,21, 0,23, 0.00,60.00,WinterDesignDay
9,29081170.62913453
14429,413481014.8332141
14637,313478926.9594008
14711,96986054.33290243
14875,0.0
15063,6412003.8275344325
15185,0.0
15305,2695780.947717151
15317,0.0
2,1, 1,21, 0,24, 0.00,60.00,WinterDesignDay
9,30195795.54092477
14429,428707623.9014325
14637,317328623.6935128
14711,112520933.679706
14875,0.0
15063,7202663.429638268
15185,0.0
15305,3019746.257403562
15317,0.0
1,EDINBURGH.AP ANN HTG WIND 99.6% CONDNS WS=>MCDB HVAC Sizing Pass 1,  55.95,  -3.37,   0.00,  41.10
2,1, 1,21, 0, 1, 0.00,60.00,WinterDesignDay
9,20585228.038956925
14429,113319417.18865494
14637,89311729.72825569
14711,3578517.302201799
14875,0.0
15063,413515.12659037777
15185,0.0
15305,198327.05848360696
15317,0.0
2,1, 1,21, 0, 2, 0.00,60.00,WinterDesignDay
9,20768488.17797871
14429,119335527.11457019
14637,91116762.33356899
14711,4805462.474303646
14875,0.0
15063,553668.0540940609
15185,0.0
15305,241434.2700017079
15317,0.0
2,1, 1,21, 0, 3, 0.00,60.00,WinterDesignDay
9,20923352.663571987
14429,118012439.35085899
14637,92584091.88226125
14711,5930554.22027731
14875,0.0
15063,673010.9842242192
15185,0.0
15305,276955.82546482433
15317,0.0
2,1, 1,21, 0, 4, 0.00,60.00,WinterDesignDay
9,21137525.210684575
14429,119081878.63615388
14637,93855953.8861833
14711,7355763.936788327
14875,0.0
15063,838007.6935350648
15185,0.0
15305,326131.6632665753
15317,0.0
2,1, 1,21, 0, 5, 0.00,60.00,WinterDesignDay
9,21391318.545428723
14429,121508675.82651174
14637,95009740.19578661
14711,9105104.6617572
14875,0.0
15063,1020775.4715043014
15185,0.0
15305,397157.220041482
15317,0.0
2,1, 1,21, 0, 6, 0.00,60.00,WinterDesignDay
9,21660722.02748425
14429,121420989.42287762
14637,95961804.98673269
14711,11054950.598421173
14875,0.0
15063,1211067.6338614267
15185,0.0
15305,476268.5397398798
15317,0.0
2,1, 1,21, 0, 7, 0.00,60.00,WinterDesignDay
9,21966592.927190058
14429,120457070.42027442
14637,96902996.4837966
14711,13241830.642117005
14875,0.0
15063,1429252.1802080146
15185,0.0
15305,563954.8930991065
15317,0.0
2,1, 1,21, 0, 8, 0.00,60.00,WinterDesignDay
9,22225490.767376594
14429,118674495.22986513
14637,97667073.42930427
14711,15348933.639206497
14875,0.0
15063,1618654.4601363763
15185,0.0
15305,633450.4533572814
15317,0.0
2,1, 1,21, 0, 9, 0.00,60.00,WinterDesignDay
9,59719212.189904645
14429,931929564.0922229
14637,329381071.8363401
14711,583572888.9393106
14875,0.0
15063,31629897.944108583
15185,0.0
15305,8115928.391913129
15317,0.0
2,1, 1,21, 0,10, 0.00,60.00,WinterDesignDay
9,47733310.91594332
14429,641074185.830858
14637,258523646.03472686
14711,387602244.6385668
14875,0.0
15063,20583062.53661882
15185,0.0
15305,7176862.52544156
15317,0.0
2,1, 1,21, 0,11, 0.00,60.00,WinterDesignDay
9,45806233.01794283
14429,591305261.4982082
14637,247209289.6629404
14711,350535066.41315746
14875,0.0
15063,18978281.90395399
15185,0.0
15305,6854565.260105908
15317,0.0
2,1, 1,21, 0,12, 0.00,60.00,WinterDesignDay
9,44636890.34036427
14429,562941321.7420723
14637,241709952.66711995
14711,327089878.29885554
14875,0.0
15063,18061946.102989953
15185,0.0
15305,6601558.383491375
15317,0.0
2,1, 1,21, 0,13, 0.00,60.00,WinterDesignDay
9,43557982.09902536
14429,541542949.278658
14637,238151928.62494034
14711,309063668.73296595
14875,0.0
15063,16979402.664601825
15185,0.0
15305,6605193.580540601
15317,0.0
2,1, 1,21, 0,14, 0.00,60.00,WinterDesignDay
9,42682778.68367939
14429,523237968.7669879
14637,235248807.9161929
14711,293742522.45381904
14875,0.0
15063,16208499.596863255
15185,0.0
15305,6500893.2329332
15317,0.0
2,1, 1,21, 0,15, 0.00,60.00,WinterDesignDay
9,41993795.79986259
14429,507133913.4203324
14637,232849410.50848645
14711,280396914.62595433
14875,0.0
15063,15684452.498225588
15185,0.0
15305,6335957.447754077
15317,0.0