Program Version,EnergyPlus, Version 23.2.0-7636e6b3e9, YMD=2025.10.10 13:28
1,5,Environment Title[],Latitude[deg],Longitude[deg],Time Zone[],Elevation[m]
2,8,Day of Simulation[],Month[],Day of Month[],DST Indicator[1=yes 0=no],Hour[],StartMinute[],EndMinute[],DayType
3,5,Cumulative Day of Simulation[],Month[],Day of Month[],DST Indicator[1=yes 0=no],DayType  ! When Daily Meters Requested
4,2,Cumulative Days of Simulation[],Month[]  ! When Monthly Meters Requested
5,1,Cumulative Days of Simulation[] ! When Run Period Meters Requested
6,1,Calendar Year of Simulation[] ! When Annual Meters Requested
14219,1,Electricity:HVAC [J] !Hourly
14463,1,Electricity:Plant [J] !Hourly
13787,1,Baseboard:EnergyTransfer [J] !Hourly
9,1,Electricity:Facility [J] !Hourly
13579,1,DistrictHeatingWater:Facility [J] !Hourly
14343,1,DistrictCooling:Facility [J] !Hourly
14475,1,Cooling:Electricity [J] !Hourly
End of Data Dictionary
1,EDINBURGH.AP ANN CLG .4% CONDNS DB=>MWB HVAC Sizing Pass 1,  55.95,  -3.37,   0.00,  41.10
2,1, 7,21, 0, 1, 0.00,60.00,SummerDesignDay
9,40546843.69337496
13579,148816.41836056075
13787,0.0
14219,211672.5023171601
14343,0.0
14463,20361765.707559425
14475,2202704.3377070054
2,1, 7,21, 0, 2, 0.00,60.00,SummerDesignDay
9,40479664.75823812
13579,201833.32479060342
13787,0.0
14219,178543.76278299213
14343,0.0
14463,20327715.511956744
14475,2167271.5471783434
2,1, 7,21, 0, 3, 0.00,60.00,SummerDesignDay
9,40396532.267187566
13579,280102.9020315555
13787,0.0
14219,151503.73242905163
14343,0.0
14463,20271623.051260136
14475,2109134.210838034
2,1, 7,21, 0, 4, 0.00,60.00,SummerDesignDay
9,40448846.17898841
13579,1681611.5217563815
13787,295554.9857624935
14219,247487.98132985787
14343,0.0
14463,20227952.714160167
14475,2028297.424798449
2,1, 7,21, 0, 5, 0.00,60.00,SummerDesignDay
9,40504810.271789975
13579,2694880.383719869
13787,683275.8603022925
14219,319217.1159100741
14343,0.0
14463,20212187.672381524
14475,1985672.987482306
2,1, 7,21, 0, 6, 0.00,60.00,SummerDesignDay
9,40487408.70714382
13579,3072999.5453378176
13787,817072.6652538184
14219,337643.1446487994
14343,0.0
14463,20176360.07899664
14475,1941678.4462491553
2,1, 7,21, 0, 7, 0.00,60.00,SummerDesignDay
9,61225334.25955533
13579,2979623.636105195
13787,721040.3620973164
14219,321068.59819235606
14343,0.0
14463,20131203.098631322
14475,1900689.9611100908
2,1, 7,21, 0, 8, 0.00,60.00,SummerDesignDay
9,519603597.5414803
13579,496860.77547447954
13787,0.0
14219,140691.54896107313
14343,0.0
14463,20044435.691772386
14475,1876828.0237775322
2,1, 7,21, 0, 9, 0.00,60.00,SummerDesignDay
9,598047535.5878329
13579,318209.68441078137
13787,0.0
14219,59362003.30879754
14343,0.0
14463,36872152.00561416
14475,18153248.89545545
2,1, 7,21, 0,10, 0.00,60.00,SummerDesignDay
9,615208603.1179202
13579,88411.46078500239
13787,0.0
14219,58974698.66949072
14343,0.0
14463,42091349.51725756
14475,22893926.086395532
2,1, 7,21, 0,11, 0.00,60.00,SummerDesignDay
9,664579750.9691366
13579,0.0
13787,0.0
14219,58971788.564608805
14343,0.0
14463,89024243.8746
14475,67326685.09859887
2,1, 7,21, 0,12, 0.00,60.00,SummerDesignDay
9,713899417.3138978
13579,0.0
13787,0.0
14219,58928707.68521744
14343,0.0
14463,119982243.99219386
14475,97277109.41719091
2,1, 7,21, 0,13, 0.00,60.00,SummerDesignDay
9,714448638.1292962
13579,0.0
13787,0.0
14219,58266770.250784956
14343,0.0
14463,121193402.24202463
14475,98551588.66319849
2,1, 7,21, 0,14, 0.00,60.00,SummerDesignDay
9,715865138.4450897
13579,0.0
13787,0.0
14219,59047840.64163385
14343,0.0
14463,121828832.16696914
14475,99138712.14140108
2,1, 7,21, 0,15, 0.00,60.00,SummerDesignDay
9,718362509.0362997
13579,0.0
13787,0.0
14219,60666253.273023024
14343,0.0
14463,125102700.09946424
14475,101905095.56188205
2,1, 7,21, 0,16, 0.00,60.00,SummerDesignDay
9,692048951.4222537
13579,0.0
13787,0.0
14219,61212206.0463493
14343,0.0
14463,123878920.36275515
14475,100687365.18677336
2,1, 7,21, 0,17, 0.00,60.00,SummerDesignDay
9,708444850.5984988
13579,0.0
13787,0.0
14219,61609314.03611034
14343,0.0
14463,121472964.44268012
14475,98444216.75113353
2,1, 7,21, 0,18, 0.00,60.00,Summer