Program Version,EnergyPlus, Version 23.2.0-7636e6b3e9, YMD=2025.10.13 16:38
1,5,Environment Title[],Latitude[deg],Longitude[deg],Time Zone[],Elevation[m]
2,8,Day of Simulation[],Month[],Day of Month[],DST Indicator[1=yes 0=no],Hour[],StartMinute[],EndMinute[],DayType
3,5,Cumulative Day of Simulation[],Month[],Day of Month[],DST Indicator[1=yes 0=no],DayType  ! When Daily Meters Requested
4,2,Cumulative Days of Simulation[],Month[]  ! When Monthly Meters Requested
5,1,Cumulative Days of Simulation[] ! When Run Period Meters Requested
6,1,Calendar Year of Simulation[] ! When Annual Meters Requested
14875,1,CoolingCoils:EnergyTransfer [J] !Hourly
14711,1,HeatingCoils:EnergyTransfer [J] !Hourly
15063,1,Electricity:HVAC [J] !Hourly
15305,1,Electricity:Plant [J] !Hourly
14637,1,Baseboard:EnergyTransfer [J] !Hourly
9,1,Electricity:Facility [J] !Hourly
14429,1,DistrictHeatingWater:Facility [J] !Hourly
15185,1,DistrictCooling:Facility [J] !Hourly
15317,1,Cooling:Electricity [J] !Hourly
End of Data Dictionary
1,EDINBURGH.AP ANN CLG .4% CONDNS DB=>MWB HVAC Sizing Pass 1,  55.95,  -3.37,   0.00,  41.10
2,1, 7,21, 0, 1, 0.00,60.00,SummerDesignDay
9,42135149.89099665
14429,0.0
14637,0.0
14711,0.0
14875,1418502.0617559995
15063,164961.5803939407
15185,0.0
15305,21996802.456719764
15317,2629073.1075199316
2,1, 7,21, 0, 2, 0.00,60.00,SummerDesignDay
9,41915010.04487909
14429,0.0
14637,0.0
14711,0.0
14875,1254104.893724427
15063,146722.99035509164
15185,0.0
15305,21794901.20064106
15317,2427241.742074985
2,1, 7,21, 0, 3, 0.00,60.00,SummerDesignDay
9,41774379.757402904
14429,0.0
14637,0.0
14711,0.0
14875,1134297.1390677113
15063,135212.849030522
15185,0.0
15305,21665781.054489445
15317,2298165.8626746307
2,1, 7,21, 0, 4, 0.00,60.00,SummerDesignDay
9,41670711.46786685
14429,383670.22242074827
14637,1313805.143735303
14711,0.0
14875,1020792.342419284
15063,123783.60807696113
15185,0.0
15305,21573542.005906954
15317,2204759.9935641983
2,1, 7,21, 0, 5, 0.00,60.00,SummerDesignDay
9,41568172.09300439
14429,2667933.401135904
14637,8855865.900246412
14711,0.0
14875,918119.3836981086
15063,110725.55292566877
15185,0.0
15305,21484060.68619578
15317,2108382.7981836796
2,1, 7,21, 0, 6, 0.00,60.00,SummerDesignDay
9,41524490.37242349
14429,3765210.457410098
14637,11776728.658212304
14711,0.0
14875,842920.5165126151
15063,103650.0880140371
15185,0.0
15305,21447454.430526517
15317,2069120.3054271475
2,1, 7,21, 0, 7, 0.00,60.00,SummerDesignDay
9,50761166.89021224
14429,2280850.780166432
14637,6789627.6061859485
14711,0.0
14875,771590.1023253337
15063,97228.3859223384
15185,0.0
15305,21393862.512773115
15317,2020145.8729546338
2,1, 7,21, 0, 8, 0.00,60.00,SummerDesignDay
9,512499567.8677949
14429,0.0
14637,0.0
14711,0.0
14875,736537.1513547343
15063,94032.90169854526
15185,0.0
15305,21366907.763431128
15317,1999448.3002845217
2,1, 7,21, 0, 9, 0.00,60.00,SummerDesignDay
9,570745727.5455437
14429,1080.9065080075507
14637,0.0
14711,3130.138908757575
14875,870893.2843970157
15063,55905814.47737044
15185,0.0
15305,21406375.892833747
15317,2038868.282063216
2,1, 7,21, 0,10, 0.00,60.00,SummerDesignDay
9,597279076.1061828
14429,0.0
14637,0.0
14711,166.81268590687608
14875,17591539.943418235
15063,55928915.879501045
15185,0.0
15305,25578505.9650844
15317,6208222.211802252
2,1, 7,21, 0,11, 0.00,60.00,SummerDesignDay
9,648500789.9157017
14429,0.0
14637,0.0
14711,0.0
14875,114660093.20047829
15063,55950608.448295414
15185,0.0
15305,74369484.18072109
15317,51898567.529478244
2,1, 7,21, 0,12, 0.00,60.00,SummerDesignDay
9,697911554.2067817
14429,0.0
14637,0.0
14711,0.0
14875,198714781.93216118
15063,55978264.26530187
15185,0.0
15305,116850812.48983507
15317,93170062.26225439
2,1, 7,21, 0,13, 0.00,60.00,SummerDesignDay
9,710255895.6150104
14429,0.0
14637,0.0
14711,0.0
14875,254709616.67982873
15063,56002595.75858359
15185,0.0
15305,129170822.40478197
15317,105132938.76777895
2,1, 7,21, 0,14, 0.00,60.00,SummerDesignDay
9,710757710.2451063
14429,0.0
14637,0.0
14711,0.0
14875,286158565.6210301
15063,56063631.731568076
15185,0.0
15305,129611601.06189345
15317,105620668.19070151
2,1, 7,21, 0,15, 0.00,60.00,SummerDesignDay
9,708610588.8053662
14429,0.0
14637,0.0
14711,0.0
14875,316377571.3335451
15063,56110690.97720398
15185,0.0
15305,129812330.34919149
15317,105788117.42849322
2,1, 7,21, 0,16, 0.00,60.00,SummerDesignDay
9,694316022.7174441
14429,0.0
14637,0.0
14711,0.0
14875,298731056.54074585
15063,56134945.22114359
15185,0.0
15305,129594153.15272583
15317,105525288.63165425
2,1, 7,21, 0,17, 0.00,60.00,SummerDesignDay
9,700649337.4414741
14429,0.0
14637,0.0
14711,0.0
14875,251710849.4172068
15063,56164343.462567076
15185,0.0
15305,128996289.47037277
15317,104875763.64670464
2,1, 7,21, 0,18, 0.00,60.00,SummerDesignDay
9,655632348.7606341
14429,0.0
14637,0.0
14711,0.0
14875,181359333.79523548
15063,56173808.14236753
15185,0.0
15305,108419913.4156014
15317,84905365.58651352
2,1, 7,21, 0,19, 0.00,60.00,SummerDesignDay
9,615342928.6882529
14429,0.0
14637,0.0
14711,0.0
14875,91834361.31516509
15063,56177419.448715106
15185,0.0
15305,65731972.06419842
15317,43408548.17222217
2,1, 7,21, 0,20, 0.00,60.00,SummerDesignDay
9,379825690.4300301
14429,0.0
14637,0.0
14711,0.0
14875,2633231.7135640504
15063,366716.27641797875
15185,0.0
15305,23416179.188553967
15317,4048312.135249762
2,1, 7,21, 0,21, 0.00,60.00,SummerDesignDay
9,59817798.90166723
14429,0.0
14637,0.0
14711,0.0
14875,2413669.6661715345
15063,322129.17271330405
15185,0.0
15305,23040863.819414563
15317,3672991.0976860127
2,1, 7,21, 0,22, 0.00,60.00,SummerDesignDay
9,52459468.75028914
14429,0.0
14637,0.0
14711,0.0
14875,2124442.0571136912
15063,290708.0182051689
15185,0.0
15305,22615734.987504255
15317,3247922.781815756
2,1, 7,21, 0,23, 0.00,60.00,SummerDesignDay
9,49742481.748068504
14429,0.0
14637,0.0
14711,0.0
14875,1877053.1266809125
15063,254051.3540787185
15185,0.0
15305,22330314.62208428
15317,2962542.0762164514
2,1, 7,21, 0,24, 0.00,60.00,SummerDesignDay
9,44692796.57513864
14429,0.0
14637,0.0
14711,0.0
14875,1666346.2045550793
15063,230401.126792832
15185,0.0
15305,22094099.62178868
15317,2726384.3652078276
1,EDINBURGH.AP ANN CLG .4% CONDNS DP=>MDB HVAC Sizing Pass 1,  55.95,  -3.37,   0.00,  41.10
2,1, 7,21, 0, 1, 0.00,60.00,SummerDesignDay
9,41761979.44474023
14429,0.0
14637,0.0
14711,0.0
14875,1036288.3556185262
15063,126381.15097910832
15185,0.0
15305,21662212.439878188
15317,2294630.6699106563
2,1, 7,21, 0, 2, 0.00,60.00,SummerDesignDay
9,41641608.1115861
14429,199197.06279239818
14637,400229.77515383816
14711,0.0
14875,926615.2195155388
15063,114888.38317554315
15185,0.0
15305,21553333.874527622
15317,2185429.6045868224
2,1, 7,21, 0, 3, 0.00,60.00,SummerDesignDay
9,41549514.64155059
14429,3758981.947632741
14637,7479587.069926728
14711,0.0
14875,835271.6354109715
15063,102842.97669633644
15185,0.0
15305,21473285.810971312
15317,2098950.7301948154
2,1, 7,21, 0, 4, 0.00,60.00,SummerDesignDay
9,41497113.996247604
14429,7351740.899233852
14637,14238700.097256934
14711,0.0
14875,767594.8925551511
15063,96750.68604242812
15185,0.0
15305,21426977.456322238
15317,2046486.6072125263
2,1, 7,21, 0, 5, 0.00,60.00,SummerDesignDay
9,41455763.85168095
14429,10563959.63233187
14637,19670870.457243096
14711,0.0
14875,699892.6185500615
15063,90552.7908987404
15185,0.0
15305,21391825.20689927
15317,2006400.7703988315
2,1, 7,21, 0, 6, 0.00,60.00,SummerDesignDay
9,41407056.4179957
14429,12097803.87122474
14637,21562798.786985524
14711,0.0
14875,632594.1241531663
15063,84271.62233004635
15185,0.0
15305,21349398.941782717
15317,1962282.2399807514
2,1, 7,21, 0, 7, 0.00,60.00,SummerDesignDay
9,50653387.45284633
14429,10398978.5087585
14637,17841144.70238319
14711,0.0
14875,567530.3607235699
15063,78061.3742354082
15185,0.0
15305,21305250.08709413
15317,1921564.875136985
2,1, 7,21, 0, 8, 0.00,60.00,SummerDesignDay
9,512386424.7636102
14429,852188.2079308436
14637,1436688.8321793787
14711,0.0
14875,534489.8823782444
15063,74844.53572920675
15185,0.0
15305,21272953.025215827
15317,1904253.2101161068
2,1, 7,21, 0, 9, 0.00,60.00,SummerDesignDay
9,570604418.3812191
14429,11702.264305390247
14637,0.0
14711,18107.325239063397
14875,631658.0034222291
15063,55881761.73125202
15185,0.0
15305,21289119.474627707
15317,1921687.6973008465
2,1, 7,21, 0,10, 0.00,60.00,SummerDesignDay
9,593005616.2548639
14429,1933.0997993228102
14637,0.0
14711,3262.6535741943812
14875,753170.1765637277
15063,55892685.749855794
15185,0.0
15305,21341276.243410807
15317,1973816.6414382202
2,1, 7,21, 0,11, 0.00,60.00,SummerDesignDay
9,595704456.3760389
14429,0.0
14637,0.0
14711,325.6609394097846
14875,2051241.8605700226
15063,55914347.76177159
15185,0.0
15305,21609411.327582084
15317,2241757.4865418626
2,1, 7,21, 0,12, 0.00,60.00,SummerDesignDay
9,614690344.5926006
14429,0.0
14637,0.0
14711,0.0
14875,38022808.79401672
15063,55933076.264337346
15185,0.0
15305,33674790.87661826
15317,13903162.754913092
2,1, 7,21, 0,13, 0.00,60.00,SummerDesignDay
9,657967021.4519846
14429,0.0
14637,0.0
14711,0.0
14875,113327711.99726468
15063,55948374.617008545
15185,0.0
15305,76936169.38333124
15317,54711079.75442847
2,1, 7,21, 0,14, 0.00,60.00,SummerDesignDay
9,693607482.9498032
14429,0.0
14637,0.0
14711,0.0
14875,183047709.9739806
15063,55966668.153891936
15185,0.0
15305,112558337.34426647
15317,89480763.27363333
2,1, 7,21, 0,15, 0.00,60.00,SummerDesignDay
9,701152548.0322514
14429,0.0
14637,0.0
14711,0.0
14875,203395562.89241818
15063,55984322.786556266
15185,0.0
15305,122480657.76672451
15317,99095843.51879716
2,1, 7,21, 0,16, 0.00,60.00,SummerDesignDay
9,669953010.4102407
14429,0.0
14637,0.0
14711,0.0
14875,169660127.1276925
15063,55997609.397009045
15185,0.0
15305,105368476.66965687
15317,82444749.05811286
2,1, 7,21, 0,17, 0.00,60.00,SummerDesignDay
9,641615091.232538
14429,0.0
14637,0.0
14711,475.8327517340656
14875,97654721.34647551
15063,56020610.822013386
15185,0.0
15305,70105775.9019903
15317,47983706.20937501
2,1, 7,21, 0,18, 0.00,60.00,SummerDesignDay
9,581723761.6311331
14429,0.0
14637,0.0
14711,103.23957451686813
14875,25221648.865493186
15063,56067312.24292508
15185,0.0
15305,34617822.18554276
15317,14447053.365654757
2,1, 7,21, 0,19, 0.00,60.00,SummerDesignDay
9,573052946.8207977
14429,0.0
14637,0.0
14711,1343.1251498209128
14875,2202295.494283477
15063,56072505.94036963
15185,0.0
15305,23546903.705088623
15317,4179054.5742238495
2,1, 7,21, 0,20, 0.00,60.00,SummerDesignDay
9,379262956.803015
14429,0.0
14637,0.0
14711,0.0
14875,2071003.0912028854
15063,265938.2753199136
15185,0.0
15305,22954223.562636934
15317,3586402.238827317
2,1, 7,21, 0,21, 0.00,60.00,SummerDesignDay
9,59239273.714642614
14429,0.0
14637,0.0
14711,0.0
14875,1765095.0648256764
15063,217373.95818977235
15185,0.0
15305,22567093.846913476
15317,3199305.704878365
2,1, 7,21, 0,22, 0.00,60.00,SummerDesignDay
9,51992054.24285469
14429,0.0
14637,0.0
14711,0.0
14875,1498657.3699527879
15063,171472.2652401756
15185,0.0
15305,22267556.2330348
15317,2899800.7631066125
2,1, 7,21, 0,23, 0.00,60.00,SummerDesignDay
9,49293883.29841311
14429,0.0
14637,0.0
14711,0.0
14875,1305627.9956398075
15063,152344.92777474044
15185,0.0
15305,21983422.598732874
15317,2615740.9682211485
2,1, 7,21, 0,24, 0.00,60.00,SummerDesignDay
9,44302508.31013606
14429,0.0
14637,0.0
14711,0.0
14875,1162825.47731194
15063,138217.4790255072
15185,0.0
15305,21795995.004553434
15317,2428367.7968983743
1,EDINBURGH.AP ANN CLG .4% CONDNS ENTH=>MDB HVAC Sizing Pass 1,  55.95,  -3.37,   0.00,  41.10
2,1, 7,21, 0, 1, 0.00,60.00,SummerDesignDay
9,42280614.41003689
14429,0.0
14637,0.0
14711,0.0
14875,1715909.6250387134
15063,237543.96312060428
15185,0.0
15305,22069684.593033347
15317,2701967.0334441043
2,1, 7,21, 0, 2, 0.00,60.00,SummerDesignDay
9,42168794.5386601
14429,0.0
14637,0.0
14711,0.0
14875,1502711.5633024585
15063,175937.37947180364
15185,0.0
15305,22019471.305305354
15317,2651723.6558708306
2,1, 7,21, 0, 3, 0.00,60.00,SummerDesignDay
9,41979223.33096149
14429,0.0
14637,0.0
14711,0.0
14875,1350896.4182458145
15063,157807.49993674073
15185,0.0
15305,21848029.97714181
15317,2480328.2151976684
2,1, 7,21, 0, 4, 0.00,60.00,SummerDesignDay
9,41825515.71079416
14429,0.0
14637,0.0
14711,0.0
14875,1217550.3486640488
15063,142670.1267956925
15185,0.0
15305,21709459.73011552
15317,2341815.7660924094
2,1, 7,21, 0, 5, 0.00,60.00,SummerDesignDay
9,41725732.499367625
14429,0.0
14637,0.0
14711,0.0
14875,1119903.9864308971
15063,133772.46261829368
15185,0.0
15305,21618574.182866402
15317,2250964.383000361
2,1, 7,21, 0, 6, 0.00,60.00,SummerDesignDay
9,41644817.0250016
14429,0.0
14637,0.0
14711,0.0
14875,1028524.932262652
15063,125211.17519800786
15185,0.0
15305,21546219.995920654
15317,2178642.880806233
2,1, 7,21, 0, 7, 0.00,60.00,SummerDesignDay
9,50876179.89633189
14429,0.0
14637,0.0
14711,0.0
14875,947441.510016994
15063,117438.50158439955
15185,0.0
15305,21488665.403230704
15317,2121117.774150231
2,1, 7,21, 0, 8, 0.00,60.00,SummerDesignDay
9,512623754.55418134
14429,0.0
14637,0.0
14711,0.0
14875,930005.2054516046
15063,116176.26847158768
15185,0.0
15305,21468951.083044685
15317,2101408.020630709
2,1, 7,21, 0, 9, 0.00,60.00,SummerDesignDay
9,571592248.9165988
14429,0.0
14637,0.0
14711,13105.445483290996
14875,2693014.1397055634
15063,56013238.63650595
15185,0.0
15305,22145473.104753397
15317,2776907.18801464
2,1, 7,21, 0,10, 0.00,60.00,SummerDesignDay
9,598186592.4981633
14429,0.0
14637,0.0
14711,0.0
14875,20356465.699373793
15063,55954766.84937367
15185,0.0
15305,26460171.387192294
15317,7089921.110508891
2,1, 7,21, 0,11, 0.00,60.00,SummerDesignDay
9,648972174.7129637
14429,0.0
14637,0.0
14711,0.0
14875,112342714.87859562
15063,55981376.99857674
15185,0.0
15305,74810100.4277017
15317,52572244.123731665
2,1, 7,21, 0,12, 0.00,60.00,SummerDesignDay
9,709191355.2652572
14429,0.0
14637,0.0
14711,0.0
14875,236283614.641477
15063,56016928.836767495
15185,0.0
15305,128091948.97684488
15317,104486906.00891611
2,1, 7,21, 0,13, 0.00,60.00,SummerDesignDay
9,712183259.0232714
14429,0.0
14637,0.0
14711,0.0
14875,319638409.5913646
15063,56075630.62410154
15185,0.0
15305,131025150.94752504
15317,107323414.90012959
2,1, 7,21, 0,14, 0.00,60.00,SummerDesignDay
9,713808098.4860111
14429,0.0
14637,0.0
14711,0.0
14875,377581426.1807252
15063,56105236.56321995
15185,0.0
15305,132620384.4711463
15317,108775102.3144429
2,1, 7,21, 0,15, 0.00,60.00,SummerDesignDay
9,713300417.769759
14429,0.0
14637,0.0
14711,0.0
14875,396884478.97347385
15063,56153047.014166676
15185,0.0
15305,134459803.27662167
15317,110438429.71097627
2,1, 7,21, 0,16, 0.00,60.00,SummerDesignDay
9,696607876.268286
14429,0.0
14637,0.0
14711,0.0
14875,364916107.6550758
15063,56167745.076362036
15185,0.0
15305,131853206.84834921
15317,108049613.35951608
2,1, 7,21, 0,17, 0.00,60.00,SummerDesignDay
9,702602366.3093879
14429,0.0
14637,0.0
14711,288.6595704502206
14875,298485754.91654783
15063,56179421.953051396
15185,0.0
15305,130934239.84780219
15317,107205857.2871436
2,1, 7,21, 0,18, 0.00,60.00,SummerDesignDay
9,669248064.9703455
14429,0.0
14637,0.0
14711,2744.851309642616
14875,211877832.25820854
15063,56188257.10299682
15185,0.0
15305,122021180.66468349
15317,98532895.33659019
2,1, 7,21, 0,19, 0.00,60.00,SummerDesignDay
9,616880397.2723291
14429,0.0
14637,0.0
14711,761.227026078282
14875,92306491.30746207
15063,56192660.46905775
15185,0.0
15305,67254199.62793182
15317,45105897.07363319
2,1, 7,21, 0,20, 0.00,60.00,SummerDesignDay
9,380408312.35538405
14429,0.0
14637,0.0
14711,0.0
14875,2848568.586312758
15063,383594.95528832846
15185,0.0
15305,23981922.435037673
15317,4614015.59855403
2,1, 7,21, 0,21, 0.00,60.00,SummerDesignDay
9,60198411.209841296
14429,0.0
14637,0.0
14711,0.0
14875,2614512.289416151
15063,345320.8396285196
15185,0.0
15305,23398284.460673414
15317,4030391.5344171235
2,1, 7,21, 0,22, 0.00,60.00,SummerDesignDay
9,52755859.254849516
14429,0.0
14637,0.0
14711,0.0
14875,2375827.9687941973
15063,317911.2885817491
15185,0.0
15305,22884922.221688047
15317,3517070.1396901095
2,1, 7,21, 0,23, 0.00,60.00,SummerDesignDay
9,49950540.53357996
14429,0.0
14637,0.0
14711,0.0
14875,2156246.7101662266
15063,299122.99070183444
15185,0.0
15305,22493301.770972617
15317,3125508.541894082
2,1, 7,21, 0,24, 0.00,60.00,SummerDesignDay
9,44921394.46892953
14429,0.0
14637,0.0
14711,0.0
14875,1937287.6014093366
15063,261438.2564396168
15185,0.0
15305,22291660.385932785
15317,2923886.338809129
1,EDINBURGH.AP ANN CLG .4% CONDNS WB=>MDB HVAC Sizing Pass 1,  55.95,  -3.37,   0.00,  41.10
2,1, 7,21, 0, 1, 0.00,60.00,SummerDesignDay
9,42060898.94442566
14429,0.0
14637,0.0
14711,0.0
14875,1315837.2895476576
15063,153745.0310555242
15185,0.0
15305,21933768.0594872
15317,2566081.6027776147
2,1, 7,21, 0, 2, 0.00,60.00,SummerDesignDay
9,41872690.680637136
14429,0.0
14637,0.0
14711,0.0
14875,1181730.0551691535
15063,139709.47272175265
15185,0.0
15305,21759595.354032442
15317,2391962.7410588353
2,1, 7,21, 0, 3, 0.00,60.00,SummerDesignDay
9,41747742.04096274
14429,0.0
14637,0.0
14711,0.0
14875,1071470.3564529768
15063,129347.87729150747
15185,0.0
15305,21645008.309788298
15317,2277415.4763078294
2,1, 7,21, 0, 4, 0.00,60.00,SummerDesignDay
9,41634513.866521925
14429,42887.40841324666
14637,204308.0939089751
14711,0.0
14875,963483.1094102657
15063,117697.683372873
15185,0.0
15305,21543430.32926612
15317,2175693.103440161
2,1, 7,21, 0, 5, 0.00,60.00,SummerDesignDay
9,41548649.52585321
14429,1361715.7688070284
14637,6291268.141048104
14711,0.0
14875,872854.5586382902
15063,106307.02632890735
15185,0.0
15305,21468956.645641364
15317,2095638.5783010423
2,1, 7,21, 0, 6, 0.00,60.00,SummerDesignDay
9,41502299.98870417
14429,2081404.7654010572
14637,8977532.044164311
14711,0.0
14875,802540.8790869929
15063,100018.56299862036
15185,0.0
15305,21428895.571822606
15317,2053123.7655547555
2,1, 7,21, 0, 7, 0.00,60.00,SummerDesignDay
9,50743652.281147435
14429,1219036.916298683
14637,4962394.590154177
14711,0.0
14875,734645.3381231275
15063,93850.20306912038
15185,0.0
15305,21379726.086561523
15317,2007687.3012036057
2,1, 7,21, 0, 8, 0.00,60.00,SummerDesignDay
9,512484426.4204171
14429,0.0
14637,0.0
14711,0.0
14875,701594.2906898746
15063,90807.42595489716
15185,0.0
15305,21354991.79179705
15317,1987544.252748576
2,1, 7,21, 0, 9, 0.00,60.00,SummerDesignDay
9,570724700.1539606
14429,6257.659414723041
14637,0.0
14711,23103.637212264315
14875,811473.4042048175
15063,55901373.36072996
15185,0.0
15305,21389789.617891256
15317,2022280.843228191
2,1, 7,21, 0,10, 0.00,60.00,SummerDesignDay
9,593396518.284017
14429,1276.3049726062336
14637,0.0
14711,5978.869709933124
14875,2448945.0011304086
15063,55923541.922826976
15185,0.0
15305,21701322.099592645
15317,2333590.932259765
2,1, 7,21, 0,11, 0.00,60.00,SummerDesignDay
9,619344543.3081431
14429,0.0
14637,0.0
14711,0.0
14875,61763059.798425585
15063,55943562.40843104
15185,0.0
15305,45220283.613026954
15317,24589593.049894173
2,1, 7,21, 0,12, 0.00,60.00,SummerDesignDay
9,697330864.5719221
14429,0.0
14637,0.0
14711,0.0
14875,195185364.63068986
15063,55965736.826322526
15185,0.0
15305,116282650.29395472
15317,93062596.84537311
2,1, 7,21, 0,13, 0.00,60.00,SummerDesignDay
9,712008090.1598263
14429,0.0
14637,0.0
14711,0.0
14875,291822719.449084
15063,55990318.19112338
15185,0.0
15305,130935294.51705796
15317,107264678.41798219
2,1, 7,21, 0,14, 0.00,60.00,SummerDesignDay
9,712804472.6239082
14429,0.0
14637,0.0
14711,0.0
14875,358934387.191406
15063,56018175.63001715
15185,0.0
15305,131703819.54224613
15317,107970397.86456744
2,1, 7,21, 0,15, 0.00,60.00,SummerDesignDay
9,711633354.7130213
14429,0.0
14637,0.0
14711,0.0
14875,381188359.92736703
15063,56073653.69034684
15185,0.0
15305,132872133.54370375
15317,109022981.09357738
2,1, 7,21, 0,16, 0.00,60.00,SummerDesignDay
9,696043337.3557596
14429,0.0
14637,0.0
14711,0.0
14875,344199862.9869483
15063,56108767.22710697
15185,0.0
15305,131347645.78507808
15317,107620556.22655894
2,1, 7,21, 0,17, 0.00,60.00,SummerDesignDay
9,702455745.010003
14429,0.0
14637,0.0
14711,194.007531641357
14875,267331929.6197288
15063,56129561.801392384
15185,0.0
15305,130837478.70007616
15317,107129627.71842158
2,1, 7,21, 0,18, 0.00,60.00,SummerDesignDay
9,650594782.7398062
14429,0.0
14637,0.0
14711,1777.0332051066466
14875,166803270.80843407
15063,56154988.83642794
15185,0.0
15305,103401166.70071304
15317,80445726.39787763
2,1, 7,21, 0,19, 0.00,60.00,SummerDesignDay
9,593802482.454737
14429,0.0
14637,0.0
14711,286.6236875145661
14875,44501914.07726046
15063,56159438.401549205
15185,0.0
15305,44209506.87784843
15317,23162716.437092025
2,1, 7,21, 0,20, 0.00,60.00,SummerDesignDay
9,380043422.00557786
14429,0.0
14637,0.0
14711,0.0
14875,2546396.0030722586
15063,344417.2170758135
15185,0.0
15305,23656209.823443968
15317,4288357.573349947
2,1, 7,21, 0,21, 0.00,60.00,SummerDesignDay
9,59877332.75901283
14429,0.0
14637,0.0
14711,0.0
14875,2278186.7535701334
15063,298997.3258808873
15185,0.0
15305,23123529.523592584
15317,3755686.6337503446
2,1, 7,21, 0,22, 0.00,60.00,SummerDesignDay
9,52480702.51387554
14429,0.0
14637,0.0
14711,0.0
14875,1990926.010310698
15063,261164.00876416385
15185,0.0
15305,22666512.760531645
15317,3298713.4551472873
2,1, 7,21, 0,23, 0.00,60.00,SummerDesignDay
9,49705419.415867
14429,0.0
14637,0.0
14711,0.0
14875,1760772.2525181416
15063,241350.88685385973
15185,0.0
15305,22305952.757107638
15317,2938220.090608492
2,1, 7,21, 0,24, 0.00,60.00,SummerDesignDay
9,44731135.02367146
14429,0.0
14637,0.0
14711,0.0
14875,1510944.5022523317
15063,176839.10321414383
15185,0.0
15305,22186000.093900196
15317,2818248.7143728053
1,EDINBURGH.AP ANN HTG 99.6% CONDNS DB HVAC Sizing Pass 1,  55.95,  -3.37,   0.00,  41.10
2,1, 1,21, 0, 1, 0.00,60.00,WinterDesignDay
9,31894819.122379277
14429,453902790.76345164
14637,317738621.6757499
14711,138244565.0448088
14875,0.0
15063,8406522.248899765
15185,0.0
15305,3514911.01959657
15317,0.0
2,1, 1,21, 0, 2, 0.00,60.00,WinterDesignDay
9,32866083.884994708
14429,468664020.16729534
14637,320104832.3424128
14711,151068168.80843678
14875,0.0
15063,9126594.027491001
15185,0.0
15305,3766104.0036207642
15317,0.0
2,1, 1,21, 0, 3, 0.00,60.00,WinterDesignDay
9,33707602.05418925
14429,482085371.77971816
14637,322112932.0618714
14711,163022147.55785286
14875,0.0
15063,9745700.83979253
15185,0.0
15305,3988515.360513782
15317,0.0
2,1, 1,21, 0, 4, 0.00,60.00,WinterDesignDay
9,34423005.79568295
14429,494307464.5844533
14637,324053372.2438813
14711,173930997.37523672
14875,0.0
15063,10262779.04564069
15185,0.0
15305,4186840.896159324
15317,0.0
2,1, 1,21, 0, 5, 0.00,60.00,WinterDesignDay
9,35173909.0471642
14429,506914197.84373087
14637,326030852.2751766
14711,184320373.83709234
14875,0.0
15063,10805172.516465815
15185,0.0
15305,4395350.676815451
15317,0.0
2,1, 1,21, 0, 6, 0.00,60.00,WinterDesignDay
9,35852834.60546512
14429,517817946.4020807
14637,327801095.0278167
14711,194226765.2800416
14875,0.0
15063,11294645.822889242
15185,0.0
15305,4584802.928692944
15317,0.0
2,1, 1,21, 0, 7, 0.00,60.00,WinterDesignDay
9,36608556.26238105
14429,529687480.0510636
14637,329492834.9742001
14711,204093942.46209314
14875,0.0
15063,11829294.893296815
15185,0.0
15305,4805875.515201297
15317,0.0
2,1, 1,21, 0, 8, 0.00,60.00,WinterDesignDay
9,37180997.51896258
14429,539488460.221656
14637,330879095.90852654
14711,213236510.36009017
14875,0.0
15063,12233778.546161614
15185,0.0
15305,4973833.11891802
15317,0.0
2,1, 1,21, 0, 9, 0.00,60.00,WinterDesignDay
9,84518589.88158622
14429,1514788012.3590915
14637,593570825.3456696
14711,945050671.8572142
14875,0.0
15063,54503984.93225804
15185,0.0
15305,10041219.09544525
15317,0.0
2,1, 1,21, 0,10, 0.00,60.00,WinterDesignDay
9,68740234.57509775
14429,1227531886.7712317
14637,511465225.5878664
14711,722503128.6320758
14875,0.0
15063,39773414.90579277
15185,0.0
15305,8993433.815422028
15317,0.0
2,1, 1,21, 0,11, 0.00,60.00,WinterDesignDay
9,64450697.18348618
14429,1145950848.9915433
14637,495445965.2958527
14711,659098660.1709828
14875,0.0
15063,35723172.56628889
15185,0.0
15305,8754138.763314344
15317,0.0
2,1, 1,21, 0,12, 0.00,60.00,WinterDesignDay
9,62367746.55630277
14429,1100835434.6774087
14637,487711642.0188385
14711,621693339.7756113
14875,0.0
15063,33869273.71695707
15185,0.0
15305,8525086.985462751
15317,0.0
2,1, 1,21, 0,13, 0.00,60.00,WinterDesignDay
9,60398900.879985936
14429,1066873644.4727097
14637,482585670.3294064
14711,593012971.0921125
14875,0.0
15063,32037408.555000406
15185,0.0
15305,8388106.471102584
15317,0.0
2,1, 1,21, 0,14, 0.00,60.00,WinterDesignDay
9,58774811.13060858
14429,1039712601.8147589
14637,478343571.01979303
14711,569018227.8167738
14875,0.0
15063,30456102.09242404
15185,0.0
15305,8345323.184301609
15317,0.0
2,1, 1,21, 0,15, 0.00,60.00,WinterDesignDay
9,57223226.86631322
14429,1016154356.6439518
14637,474963041.01891017
14711,548754011.9451778
14875,0.0
15063,28787680.271712948
15185,0.0
15305,8462160.74071733
15317,0.0
2,1, 1,21, 0,16, 0.00,60.00,WinterDesignDay
9,56029427.2607646
14429,994748395.0133109
14637,471893424.8543259
14711,530989812.95635325
14875,0.0
15063,27600674.264845043
15185,0.0
15305,8455367.14203661
15317,0.0
2,1, 1,21, 0,17, 0.00,60.00,WinterDesignDay
9,54984020.57409561
14429,976770852.9040787
14637,469402279.62005365
14711,515562160.7644431
14875,0.0
15063,26611064.89671205
15185,0.0
15305,8399569.823500618
15317,0.0
2,1, 1,21, 0,18, 0.00,60.00,WinterDesignDay
9,54102588.54412529
14429,960503347.2900164
14637,467178449.0782596
14711,502106492.47737885
14875,0.0
15063,25792397.451537013
15185,0.0
15305,8336805.238705351
15317,0.0
2,1, 1,21, 0,19, 0.00,60.00,WinterDesignDay
9,53569665.823796675
14429,946589523.5273358
14637,465162112.3080998
14711,490056478.058241
14875,0.0
15063,25388150.951597583
15185,0.0
15305,8208129.01831616
15317,0.0
2,1, 1,21, 0,20, 0.00,60.00,WinterDesignDay
9,20991952.058508623
14429,129231231.99399285
14637,228246724.82264805
14711,9884346.327725632
14875,0.0
15063,649941.8158295993
15185,0.0
15305,368624.3887960883
15317,0.0
2,1, 1,21, 0,21, 0.00,60.00,WinterDesignDay
9,25698990.889369417
14429,432961486.6062247
14637,296136440.45908993
14711,60683021.476004094
14875,0.0
15063,4059904.8977813805
15185,0.0
15305,1665700.1377050949
15317,0.0
2,1, 1,21, 0,22, 0.00,60.00,WinterDesignDay
9,28245417.212946717
14429,408532431.27725786
14637,305196237.3669245
14711,89113432.53910418
14875,0.0
15063,5828736.785511345
15185,0.0
15305,2443294.573552435
15317,0.0
2,1, 1,21, 0,23, 0.00,60.00,WinterDesignDay
9,29980373.586651172
14429,421684571.1367059
14637,311051825.2113504
14711,109758156.0782645
14875,0.0
15063,7028876.035599355
15185,0.0
15305,2978111.6971688755
15317,0.0
2,1, 1,21, 0,24, 0.00,60.00,WinterDesignDay
9,30976215.47019748
14429,438136477.70420337
14637,314848490.1585967
14711,125041946.02467103
14875,0.0
15063,7737449.742070243
15185,0.0
15305,3265379.8742443025
15317,0.0
1,EDINBURGH.AP ANN HTG WIND 99.6% CONDNS WS=>MCDB HVAC Sizing Pass 1,  55.95,  -3.37,   0.00,  41.10
2,1, 1,21, 0, 1, 0.00,60.00,WinterDesignDay
9,20734625.49316154
14429,114300935.02761716
14637,88455277.43090259
14711,4603377.7908286
14875,0.0
15063,526729.6240016853
15185,0.0
15305,234510.01527691635
15317,0.0
2,1, 1,21, 0, 2, 0.00,60.00,WinterDesignDay
9,20875045.333180677
14429,114494854.94722885
14637,90234307.54273741
14711,5780345.505037381
14875,0.0
15063,633568.5414785997
15185,0.0
15305,268090.93781913765
15317,0.0
2,1, 1,21, 0, 3, 0.00,60.00,WinterDesignDay
9,21081315.266157195
14429,117936909.47629867
14637,91720396.07475957
14711,7127106.904153917
14875,0.0
15063,791908.0502181499
15185,0.0
15305,316021.36205610674
15317,0.0
2,1, 1,21, 0, 4, 0.00,60.00,WinterDesignDay
9,21387340.560269237
14429,123719408.25988628
14637,92978342.99885008
14711,9101610.057694519
14875,0.0
15063,1014108.2273731633
15185,0.0
15305,399846.4790131312
15317,0.0
2,1, 1,21, 0, 5, 0.00,60.00,WinterDesignDay
9,21671068.846537814
14429,122189954.06675234
14637,94117686.7702015
14711,11213241.882002523
14875,0.0
15063,1216390.378843872
15185,0.0
15305,481292.61381100107
15317,0.0
2,1, 1,21, 0, 6, 0.00,60.00,WinterDesignDay
9,22006431.56883342
14429,121078107.03881273
14637,95098880.05020477
14711,13651450.9650484
14875,0.0
15063,1453701.7447149302
15185,0.0
15305,579343.9702355519
15317,0.0
2,1, 1,21, 0, 7, 0.00,60.00,WinterDesignDay
9,22291172.900102176
14429,118632085.63854903
14637,96008046.88604769
14711,15994405.506660799
14875,0.0
15063,1661244.276718213
15185,0.0
15305,656542.769501023
15317,0.0
2,1, 1,21, 0, 8, 0.00,60.00,WinterDesignDay
9,22543924.38873432
14429,118760853.24002238
14637,96758542.75028516
14711,18194935.554494187
14875,0.0
15063,1847744.492878988
15185,0.0
15305,722794.0419723929
15317,0.0
2,1, 1,21, 0, 9, 0.00,60.00,WinterDesignDay
9,60608831.182068065
14429,942996125.2194767
14637,328959975.13919216
14711,599763679.8953989
14875,0.0
15063,32328887.71931359
15185,0.0
15305,8306557.608871533
15317,0.0
2,1, 1,21, 0,10, 0.00,60.00,WinterDesignDay
9,48553018.665794246
14429,653119803.9769913
14637,257513236.79994538
14711,400209766.5766262
14875,0.0
15063,21281840.949686736
15185,0.0
15305,7297791.862224569
15317,0.0
2,1, 1,21, 0,11, 0.00,60.00,WinterDesignDay
9,46433394.41049575
14429,601977589.304297
14637,246028302.84576768
14711,362536754.64446366
14875,0.0
15063,19383312.040103875
15185,0.0
15305,7076696.516508934
15317,0.0
2,1, 1,21, 0,12, 0.00,60.00,WinterDesignDay
9,45298374.96974408
14429,572518794.5165005
14637,240506578.56134355
14711,338475633.1652265
14875,0.0
15063,18545762.9103757
15185,0.0
15305,6779226.205485442
15317,0.0
2,1, 1,21, 0,13, 0.00,60.00,WinterDesignDay
9,44304728.49248214
14429,551439779.955702
14637,236798262.38754067
14711,319795725.5285188
14875,0.0
15063,17704374.409502354
15185,0.0
15305,6626968.22909685
15317,0.0
2,1, 1,21, 0,14, 0.00,60.00,WinterDesignDay
9,43387171.06124199
14429,531835874.7203504
14637,233873337.7347326
14711,304259550.64423925
14875,0.0
15063,16798652.906741492
15185,0.0
15305,6615132.300617568
15317,0.0
2,1, 1,21, 0,15, 0.00,60.00,WinterDesignDay
9,42577910.35600609