Program Version,EnergyPlus, Version 23.2.0-7636e6b3e9, YMD=2025.10.13 17:28
1,5,Environment Title[],Latitude[deg],Longitude[deg],Time Zone[],Elevation[m]
2,8,Day of Simulation[],Month[],Day of Month[],DST Indicator[1=yes 0=no],Hour[],StartMinute[],EndMinute[],DayType
3,5,Cumulative Day of Simulation[],Month[],Day of Month[],DST Indicator[1=yes 0=no],DayType  ! When Daily Meters Requested
4,2,Cumulative Days of Simulation[],Month[]  ! When Monthly Meters Requested
5,1,Cumulative Days of Simulation[] ! When Run Period Meters Requested
6,1,Calendar Year of Simulation[] ! When Annual Meters Requested
14875,1,CoolingCoils:EnergyTransfer [J] !Hourly
14711,1,HeatingCoils:EnergyTransfer [J] !Hourly
15063,1,Electricity:HVAC [J] !Hourly
15305,1,Electricity:Plant [J] !Hourly
14637,1,Baseboard:EnergyTransfer [J] !Hourly
9,1,Electricity:Facility [J] !Hourly
14429,1,DistrictHeatingWater:Facility [J] !Hourly
15185,1,DistrictCooling:Facility [J] !Hourly
15317,1,Cooling:Electricity [J] !Hourly
End of Data Dictionary
1,EDINBURGH.AP ANN CLG .4% CONDNS DB=>MWB HVAC Sizing Pass 1,  55.95,  -3.37,   0.00,  41.10
2,1, 7,21, 0, 1, 0.00,60.00,SummerDesignDay
9,42045774.218269125
14429,0.0
14637,0.0
14711,0.0
14875,1534099.6577890215
15063,195351.90010610284
15185,0.0
15305,21877036.464280076
15317,2632414.905167708
2,1, 7,21, 0, 2, 0.00,60.00,SummerDesignDay
9,41860352.250847794
14429,0.0
14637,0.0
14711,0.0
14875,1338586.176114331
15063,156366.58194185997
15185,0.0
15305,21730599.81502299
15317,2486008.78024026
2,1, 7,21, 0, 3, 0.00,60.00,SummerDesignDay
9,41698354.59910207
14429,0.0
14637,0.0
14711,0.0
14875,1207131.4825905107
15063,142229.35183298992
15185,0.0
15305,21582739.393386144
15317,2338202.737374076
2,1, 7,21, 0, 4, 0.00,60.00,SummerDesignDay
9,41579306.07336119
14429,0.0
14637,0.0
14711,0.0
14875,1094841.1546449885
15063,131530.1706950333
15185,0.0
15305,21474390.048783213
15317,2229894.532325801
2,1, 7,21, 0, 5, 0.00,60.00,SummerDesignDay
9,41480504.11144647
14429,0.0
14637,0.0
14711,0.0
14875,984756.6917709729
15063,118975.02760603958
15185,0.0
15305,21388143.22995749
15317,2143695.7988864714
2,1, 7,21, 0, 6, 0.00,60.00,SummerDesignDay
9,41405025.193303004
14429,0.0
14637,0.0
14711,0.0
14875,898628.9049860913
15063,108827.012957883
15185,0.0
15305,21322812.32646218
15317,2078403.3787831545
2,1, 7,21, 0, 7, 0.00,60.00,SummerDesignDay
9,50644103.37116301
14429,0.0
14637,0.0
14711,0.0
14875,828332.7661186662
15063,102567.76564036176
15185,0.0
15305,21271459.614005856
15317,2027073.9856870344
2,1, 7,21, 0, 8, 0.00,60.00,SummerDesignDay
9,512394774.00787914
14429,0.0
14637,0.0
14711,0.0
14875,794665.6150312482
15063,99536.40959095769
15185,0.0
15305,21256610.395623
15317,2012236.034011326
2,1, 7,21, 0, 9, 0.00,60.00,SummerDesignDay
9,571306078.5619103
14429,0.0
14637,0.0
14711,3233.1490969778897
14875,2511116.705233602
15063,56023403.09881695
15185,0.0
15305,21849138.28775395
15317,2603952.5404543336
2,1, 7,21, 0,10, 0.00,60.00,SummerDesignDay
9,597333025.0447391
14429,0.0
14637,0.0
14711,241.92979727120547
14875,17692783.89251169
15063,55938078.4466722
15185,0.0
15305,25623292.33646953
15317,6376063.0110970875
2,1, 7,21, 0,11, 0.00,60.00,SummerDesignDay
9,648507914.6359204
14429,0.0
14637,0.0
14711,0.0
14875,114771510.35065667
15063,55961947.59638506
15185,0.0
15305,74365269.75285012
15317,52024814.85620837
2,1, 7,21, 0,12, 0.00,60.00,SummerDesignDay
9,697717356.0149298
14429,0.0
14637,0.0
14711,0.0
14875,198845266.85739923
15063,55990175.521117404
15185,0.0
15305,116644703.04216751
15317,93094607.81453535
2,1, 7,21, 0,13, 0.00,60.00,SummerDesignDay
9,709469161.467619
14429,0.0
14637,0.0
14711,0.0
14875,254862783.07362545
15063,56035335.45433031
15185,0.0
15305,128351348.56164373
15317,104464669.60423018
2,1, 7,21, 0,14, 0.00,60.00,SummerDesignDay
9,709971825.8917539
14429,0.0
14637,0.0
14711,0.0
14875,286284162.9897698
15063,56099727.374296874
15185,0.0
15305,128789621.0658122
15317,104949298.81386739
2,1, 7,21, 0,15, 0.00,60.00,SummerDesignDay
9,707801399.7622311
14429,0.0
14637,0.0
14711,0.0
14875,316514213.7749046
15063,56123645.47562572
15185,0.0
15305,128990186.80763462
15317,105115683.67389709
2,1, 7,21, 0,16, 0.00,60.00,SummerDesignDay
9,693524910.888936
14429,0.0
14637,0.0
14711,0.0
14875,298885236.2239319
15063,56165213.79755254
15185,0.0
15305,128772772.74780887
15317,104854525.52740122
2,1, 7,21, 0,17, 0.00,60.00,SummerDesignDay
9,699944927.8498938
14429,0.0
14637,0.0
14711,0.0
14875,251842306.21879488
15063,56178508.301345214
15185,0.0
15305,128277715.04001413
15317,104305422.6536099
2,1, 7,21, 0,18, 0.00,60.00,SummerDesignDay
9,655571178.8879116
14429,0.0
14637,0.0
14711,0.0
14875,181487575.09103948
15063,56187762.608791985
15185,0.0
15305,108344789.07645433
15317,84957895.92284292
2,1, 7,21, 0,19, 0.00,60.00,SummerDesignDay
9,615280863.0331916
14429,0.0
14637,0.0
14711,0.0
14875,91961162.64914845
15063,56191229.85150245
15185,0.0
15305,65656096.00634969
15317,43465889.34470635
2,1, 7,21, 0,20, 0.00,60.00,SummerDesignDay
9,379800675.05081165
14429,0.0
14637,0.0
14711,0.0
14875,2758662.9239511928
15063,380385.60803111224
15185,0.0
15305,23377494.477722492
15317,4132699.0108742677
2,1, 7,21, 0,21, 0.00,60.00,SummerDesignDay
9,59738937.60294813
14429,0.0
14637,0.0
14711,0.0
14875,2521311.539765898
15063,337387.8872682101
15185,0.0
15305,22946743.80614056
15317,3701955.2386067654
2,1, 7,21, 0,22, 0.00,60.00,SummerDesignDay
9,52362747.86194755
14429,0.0
14637,0.0
14711,0.0
14875,2243018.0032431097
15063,310407.19483953074
15185,0.0
15305,22499314.922528304
15317,3254589.9175901324
2,1, 7,21, 0,23, 0.00,60.00,SummerDesignDay
9,49672267.1700705
14429,0.0
14637,0.0
14711,0.0
14875,1994605.862173596
15063,273233.53826153907
15185,0.0
15305,22240917.859903462
15317,2996230.8530100156
2,1, 7,21, 0,24, 0.00,60.00,SummerDesignDay
9,44621267.95363691
14429,0.0
14637,0.0
14711,0.0
14875,1778696.083482757
15063,245717.02473722948
15185,0.0
15305,22007255.102342553
15317,2762618.111994897
1,EDINBURGH.AP ANN CLG .4% CONDNS DP=>MDB HVAC Sizing Pass 1,  55.95,  -3.37,   0.00,  41.10
2,1, 7,21, 0, 1, 0.00,60.00,SummerDesignDay
9,41691165.98695448
14429,0.0
14637,0.0
14711,0.0
14875,1147362.7467220395
15063,137157.4147616263
15185,0.0
15305,21580622.71830992
15317,2336105.254675682
2,1, 7,21, 0, 2, 0.00,60.00,SummerDesignDay
9,41567650.43020311
14429,0.0
14637,0.0
14711,0.0
14875,1037978.1077933949
15063,126683.59404375564
15185,0.0
15305,21467580.98227642
15317,2223103.7222974845
2,1, 7,21, 0, 3, 0.00,60.00,SummerDesignDay
9,41473698.686277166
14429,0.0
14637,0.0
14711,0.0
14875,931755.4403922447
15063,114444.0213307747
15185,0.0
15305,21385868.811063446
15317,2141438.340061304
2,1, 7,21, 0, 4, 0.00,60.00,SummerDesignDay
9,41391469.66416292
14429,0.0
14637,0.0
14711,0.0
14875,849831.6926908919
15063,104523.18631555472
15185,0.0
15305,21313560.62396443
15317,2069167.7194531118
2,1, 7,21, 0, 5, 0.00,60.00,SummerDesignDay
9,41337793.896539085
14429,0.0
14637,0.0
14711,0.0
14875,782331.278300729
15063,98447.94029504829
15185,0.0
15305,21265960.102361098
15317,2021589.7784040482
2,1, 7,21, 0, 6, 0.00,60.00,SummerDesignDay
9,41288328.96923255
14429,0.0
14637,0.0
14711,0.0
14875,715112.2105892354
15063,92299.7360568667
15185,0.0
15305,21222643.37929274
15317,1978295.8293465269
2,1, 7,21, 0, 7, 0.00,60.00,SummerDesignDay
9,50541162.456009634
14429,0.0
14637,0.0
14711,0.0
14875,649787.5856308385
15063,86212.68886028694
15185,0.0
15305,21184873.775632557
15317,1940548.6963968463
2,1, 7,21, 0, 8, 0.00,60.00,SummerDesignDay
9,512291830.847556
14429,0.0
14637,0.0
14711,0.0
14875,617736.3855975932
15063,83178.06394164052
15185,0.0
15305,21170025.580949135
15317,1925711.6778531754
2,1, 7,21, 0, 9, 0.00,60.00,SummerDesignDay
9,570688689.2543905
14429,0.0
14637,0.0
14711,17745.092283191272
14875,1033650.0434840927
15063,55906942.09362343
15185,0.0
15305,21348209.985427547
15317,2103661.2417881065
2,1, 7,21, 0,10, 0.00,60.00,SummerDesignDay
9,592939067.0319247
14429,0.0
14637,0.0
14711,4049.9457279773305
14875,873486.7466519985
15063,55906884.66080891
15185,0.0
15305,21260528.109518506
15317,2016120.1467604572
2,1, 7,21, 0,11, 0.00,60.00,SummerDesignDay
9,595636808.5184639
14429,0.0
14637,0.0
14711,481.6877073096016
14875,2196454.641799423
15063,55927999.07217507
15185,0.0
15305,21528112.15960353
15317,2283511.1121147536
2,1, 7,21, 0,12, 0.00,60.00,SummerDesignDay
9,614691580.8926907
14429,0.0
14637,0.0
14711,0.0
14875,38163860.796523675
15063,55945595.473979555
15185,0.0
15305,33663507.967066206
15317,14017291.76542291
2,1, 7,21, 0,13, 0.00,60.00,SummerDesignDay
9,657924500.4537379
14429,0.0
14637,0.0
14711,0.0
14875,113474208.11207628
15063,55963020.9426188
15185,0.0
15305,76879002.05947404
15317,54785906.87801246
2,1, 7,21, 0,14, 0.00,60.00,SummerDesignDay
9,693563459.9640448
14429,0.0
14637,0.0
14711,0.0
14875,183233405.08378023
15063,55984292.88768475
15185,0.0
15305,112496689.62471506
15317,89545791.46283625
2,1, 7,21, 0,15, 0.00,60.00,SummerDesignDay
9,701121082.9749354
14429,0.0
14637,0.0
14711,0.0
14875,203582413.31095928
15063,56000582.99564196
15185,0.0
15305,122432932.50032277
15317,99173013.01720734
2,1, 7,21, 0,16, 0.00,60.00,SummerDesignDay
9,669908223.8787684
14429,0.0
14637,0.0
14711,0.0
14875,169862134.81732997
15063,56034490.68082224
15185,0.0
15305,105286808.85437134
15317,82491306.3112081
2,1, 7,21, 0,17, 0.00,60.00,SummerDesignDay
9,641632686.6490403
14429,0.0
14637,0.0
14711,475.83259441637597
14875,97869712.3884321
15063,56075415.577959605
15185,0.0
15305,70068566.56254636
15317,48079048.67853343
2,1, 7,21, 0,18, 0.00,60.00,SummerDesignDay
9,581979845.4569991
14429,0.0
14637,0.0
14711,103.23952291150519
14875,25395374.342135895
15063,56084348.24553246
15185,0.0
15305,34856870.00880138
15317,14615405.752955757
2,1, 7,21, 0,19, 0.00,60.00,SummerDesignDay
9,573067878.9923072
14429,0.0
14637,0.0
14711,1355.9921363207686
14875,2373785.2695150026
15063,56089299.77699365
15185,0.0
15305,23545042.039974064
15317,4300244.939553186
2,1, 7,21, 0,20, 0.00,60.00,SummerDesignDay
9,379234870.9149652
14429,0.0
14637,0.0
14711,0.0
14875,2239076.5291279512
15063,282514.78605995985
15185,0.0
15305,22909561.16384717
15317,3664792.9496453004
2,1, 7,21, 0,21, 0.00,60.00,SummerDesignDay
9,59127169.86475994
14429,0.0
14637,0.0
14711,0.0
14875,1959019.8422549893
15063,259343.92378012952
15185,0.0
15305,22413020.03144044
15317,3168330.0107801035
2,1, 7,21, 0,22, 0.00,60.00,SummerDesignDay
9,51930782.995007396
14429,0.0
14637,0.0
14711,0.0
14875,1688499.483500094
15063,212446.48864493635
15185,0.0
15305,22165310.761782736
15317,2920647.8202358033
2,1, 7,21, 0,23, 0.00,60.00,SummerDesignDay
9,49286131.4914223
14429,0.0
14637,0.0
14711,0.0
14875,1463333.1491095528
15063,169045.74127605726
15185,0.0
15305,21958969.978240736
15317,2714329.3218804663
2,1, 7,21, 0,24, 0.00,60.00,SummerDesignDay
9,44252725.135781646
14429,0.0
14637,0.0
14711,0.0
14875,1291358.3516949548
15063,150979.6765780012
15185,0.0
15305,21733449.632646516
15317,2488878.874549899
1,EDINBURGH.AP ANN CLG .4% CONDNS ENTH=>MDB HVAC Sizing Pass 1,  55.95,  -3.37,   0.00,  41.10
2,1, 7,21, 0, 1, 0.00,60.00,SummerDesignDay
9,42227482.78615596
14429,0.0
14637,0.0
14711,0.0
14875,1832413.2990657736
15063,249325.9504750866
15185,0.0
15305,22004770.981797934
15317,2760122.1094704242
2,1, 7,21, 0, 2, 0.00,60.00,SummerDesignDay
9,42049815.53386054
14429,0.0
14637,0.0
14711,0.0
14875,1654185.3698049667
15063,225024.91740259636
15185,0.0
15305,21851404.762575008
15317,2606792.099517909
2,1, 7,21, 0, 3, 0.00,60.00,SummerDesignDay
9,41947135.831532046
14429,0.0
14637,0.0
14711,0.0
14875,1462328.159267963
15063,168782.79054674334
15185,0.0
15305,21804967.187102366
15317,2560328.1797664235
2,1, 7,21, 0, 4, 0.00,60.00,SummerDesignDay
9,41777721.1992805
14429,0.0
14637,0.0
14711,0.0
14875,1321820.7532290881
15063,154682.8344908431
15185,0.0
15305,21649652.51090672
15317,2405067.9588935357
2,1, 7,21, 0, 5, 0.00,60.00,SummerDesignDay
9,41647030.99180079
14429,0.0
14637,0.0
14711,0.0
14875,1206107.0640743547
15063,141949.04566206588
15185,0.0
15305,21531696.092255786
15317,2287160.4101173733
2,1, 7,21, 0, 6, 0.00,60.00,SummerDesignDay
9,41566183.55628432
14429,0.0
14637,0.0
14711,0.0
14875,1115447.4068396601
15063,133692.5382062211
15185,0.0
15305,21459105.164195165
15317,2214601.146000929
2,1, 7,21, 0, 7, 0.00,60.00,SummerDesignDay
9,50795813.48658617
14429,0.0
14637,0.0
14711,0.0
14875,1035217.2499932295
15063,126290.36832981557
15185,0.0
15305,21399447.12673955
15317,2154971.313332472
2,1, 7,21, 0, 8, 0.00,60.00,SummerDesignDay
9,512539900.1551137
14429,0.0
14637,0.0
14711,0.0
14875,1020300.7272681588
15063,125089.1316845649
15185,0.0
15305,21376183.820764042
15317,2131712.3791524316
2,1, 7,21, 0, 9, 0.00,60.00,SummerDesignDay
9,571974528.1356001
14429,0.0
14637,0.0
14711,15769.210260355128
14875,4387793.920056994
15063,56123687.7449484
15185,0.0
15305,22417303.215312213
15317,3171090.6404334656
2,1, 7,21, 0,10, 0.00,60.00,SummerDesignDay
9,598425349.7414403
14429,0.0
14637,0.0
14711,0.0
14875,20490936.01681425
15063,55968149.72184297
15185,0.0
15305,26685545.758000024
15317,7438328.959275242
2,1, 7,21, 0,11, 0.00,60.00,SummerDesignDay
9,649052014.8128337
14429,0.0
14637,0.0
14711,0.0
14875,112493443.06522796
15063,55998309.12980408
15185,0.0
15305,74873008.39634438
15317,52764089.227322444
2,1, 7,21, 0,12, 0.00,60.00,SummerDesignDay
9,708652809.460897
14429,0.0
14637,0.0
14711,0.0
14875,236449034.45016125
15063,56055039.5205086
15185,0.0
15305,127515292.48874336
15317,104051419.32826073
2,1, 7,21, 0,13, 0.00,60.00,SummerDesignDay
9,711372941.9231861
14429,0.0
14637,0.0
14711,0.0
14875,319761232.7464917
15063,56095686.13732146
15185,0.0
15305,130194778.3342196
15317,106641222.14926463
2,1, 7,21, 0,14, 0.00,60.00,SummerDesignDay
9,713210829.4962298
14429,0.0
14637,0.0
14711,0.0
14875,377734015.4587401
15063,56150041.64884002
15185,0.0
15305,131978310.39574488
15317,108265255.09472416
2,1, 7,21, 0,15, 0.00,60.00,SummerDesignDay
9,712734706.9470176
14429,0.0
14637,0.0
14711,0.0
14875,397036594.5160239
15063,56168364.86325021
15185,0.0
15305,133878774.6047966
15317,109983066.36230448
2,1, 7,21, 0,16, 0.00,60.00,SummerDesignDay
9,695911396.7046375
14429,0.0
14637,0.0
14711,0.0
14875,365056613.7466828
15063,56182574.63622032
15185,0.0
15305,131141897.72484249
15317,107475348.67198187
2,1, 7,21, 0,17, 0.00,60.00,SummerDesignDay
9,701786855.0144134
14429,0.0
14637,0.0
14711,288.65971282311233
14875,298621064.5189187
15063,56193989.19461307
15185,0.0
15305,130104161.31126593
15317,106524411.78189567
2,1, 7,21, 0,18, 0.00,60.00,SummerDesignDay
9,668927155.8325049
14429,0.0
14637,0.0
14711,2744.851310071976
14875,212011632.6562314
15063,56202731.27380267
15185,0.0
15305,121685797.35603699
15317,98332350.34750612
2,1, 7,21, 0,19, 0.00,60.00,SummerDesignDay
9,616830739.1444975
14429,0.0
14637,0.0
14711,761.2270263686005
14875,92438648.09591463
15063,56206945.84445604
15185,0.0
15305,67190256.12470207
15317,45175063.18623583
2,1, 7,21, 0,20, 0.00,60.00,SummerDesignDay
9,380394656.04334086
14429,0.0
14637,0.0
14711,0.0
14875,2979870.131509058
15063,397763.6504791771
15185,0.0
15305,23954097.42780363
15317,4709260.884403954
2,1, 7,21, 0,21, 0.00,60.00,SummerDesignDay
9,60114035.10932557
14429,0.0
14637,0.0
14711,0.0
14875,2732013.4787660777
15063,361586.29004023323
15185,0.0
15305,23297642.909745973
15317,4052832.961906066
2,1, 7,21, 0,22, 0.00,60.00,SummerDesignDay
9,52696392.67648822
14429,0.0
14637,0.0
14711,0.0
14875,2500996.3692934075
15063,330735.5904985296
15185,0.0
15305,22812631.34140997
15317,3567848.5128461635
2,1, 7,21, 0,23, 0.00,60.00,SummerDesignDay
9,49884223.82456744
14429,0.0
14637,0.0
14711,0.0
14875,2279514.78825589
15063,311942.29630267306
15185,0.0
15305,22414165.756359253
15317,3169442.3382080323
2,1, 7,21, 0,24, 0.00,60.00,SummerDesignDay
9,44814296.35068248
14429,0.0
14637,0.0
14711,0.0
14875,2081539.9241031092
15063,294267.79190654325
15185,0.0
15305,22151732.732218817
15317,2907063.848943957
1,EDINBURGH.AP ANN CLG .4% CONDNS WB=>MDB HVAC Sizing Pass 1,  55.95,  -3.37,   0.00,  41.10
2,1, 7,21, 0, 1, 0.00,60.00,SummerDesignDay
9,42014619.72630722
14429,0.0
14637,0.0
14711,0.0
14875,1416345.4061215152
15063,164700.19392442537
15185,0.0
15305,21876533.678499855
15317,2631910.350250395
2,1, 7,21, 0, 2, 0.00,60.00,SummerDesignDay
9,41799207.79330301
14429,0.0
14637,0.0
14711,0.0
14875,1259661.752892561
15063,147438.89315887247
15185,0.0
15305,21678383.04626119
15317,2433826.2092391793
2,1, 7,21, 0, 3, 0.00,60.00,SummerDesignDay
9,41665720.22312631
14429,0.0
14637,0.0
14711,0.0
14875,1148327.8349831682
15063,136852.8192530423
15185,0.0
15305,21555481.549990322
15317,2310965.4697241597
2,1, 7,21, 0, 4, 0.00,60.00,SummerDesignDay
9,41552426.201390125
14429,0.0
14637,0.0
14711,0.0
14875,1043174.1186044853
15063,126681.2267618754
15185,0.0
15305,21452359.120745312
15317,2207882.0383646633
2,1, 7,21, 0, 5, 0.00,60.00,SummerDesignDay
9,41465045.04110498
14429,0.0
14637,0.0
14711,0.0
14875,940469.9544643087
15063,114734.02419278712
15185,0.0
15305,21376925.16302926
15317,2132493.7200186257
2,1, 7,21, 0, 6, 0.00,60.00,SummerDesignDay
9,41379594.865370944
14429,0.0
14637,0.0
14711,0.0
14875,861311.9661392241
15063,105514.05786976063
15185,0.0
15305,21300694.953618243
15317,2056298.3588682613
2,1, 7,21, 0, 7, 0.00,60.00,SummerDesignDay
9,50634454.49578346
14429,0.0
14637,0.0
14711,0.0
14875,794204.1109472514
15063,99493.11021103903
15185,0.0
15305,21264885.394055635
15317,2020511.1910494056
2,1, 7,21, 0, 8, 0.00,60.00,SummerDesignDay
9,512379167.19395566
14429,0.0
14637,0.0
14711,0.0
14875,762583.3941082349
15063,96623.45627803073
15185,0.0
15305,21243916.53501251
15317,1999552.9797886652
2,1, 7,21, 0, 9, 0.00,60.00,SummerDesignDay
9,571248008.4760277
14429,0.0
14637,0.0
14711,23442.45776634854
14875,2453994.6438545417
15063,56000369.40980557
15185,0.0
15305,21814101.8908827
15317,2568946.521840832
2,1, 7,21, 0,10, 0.00,60.00,SummerDesignDay
9,593365659.8230832
14429,0.0
14637,0.0
14711,5723.300703528625
14875,2554690.5849463725
15063,55933421.717505455
15185,0.0
15305,21660583.843980394
15317,2415919.941923664
2,1, 7,21, 0,11, 0.00,60.00,SummerDesignDay
9,619468172.7279017
14429,0.0
14637,0.0
14711,0.0
14875,61867925.60878499
15063,55953397.43419489
15185,0.0
15305,45334078.00702157
15317,24831975.500412032
2,1, 7,21, 0,12, 0.00,60.00,SummerDesignDay
9,697017859.2053329
14429,0.0
14637,0.0
14711,0.0
14875,195323495.6005283
15063,55979526.07460299
15185,0.0
15305,115955855.67908499
15317,92870207.66468054
2,1, 7,21, 0,13, 0.00,60.00,SummerDesignDay
9,711190313.1778105
14429,0.0
14637,0.0
14711,0.0
14875,291967263.72012424
15063,56002647.89107735
15185,0.0
15305,130105187.8350883
15317,106582859.08956832
2,1, 7,21, 0,14, 0.00,60.00,SummerDesignDay
9,712091243.9726169
14429,0.0
14637,0.0
14711,0.0
14875,359097054.63376576
15063,56055770.843198985
15185,0.0
15305,130952995.67777282
15317,107360769.9080263
2,1, 7,21, 0,15, 0.00,60.00,SummerDesignDay
9,711073596.9712743
14429,0.0
14637,0.0
14711,0.0
14875,381297328.8699161
15063,56104405.70355196
15185,0.0
15305,132281623.7887516
15317,108559911.11263844
2,1, 7,21, 0,16, 0.00,60.00,SummerDesignDay
9,695279478.0647274
14429,0.0
14637,0.0
14711,0.0
14875,344371773.93155485
15063,56135516.3468495
15185,0.0
15305,130557037.37430313
15317,106974056.45033629
2,1, 7,21, 0,17, 0.00,60.00,SummerDesignDay
9,701656217.4517848
14429,0.0
14637,0.0
14711,194.00738483654865
14875,267490758.1873514
15063,56160225.26702777
15185,0.0
15305,130007287.67622273
15317,106448666.76036434
2,1, 7,21, 0,18, 0.00,60.00,SummerDesignDay
9,650545047.1127323
14429,0.0
14637,0.0
14711,1777.0324571454353
14875,166939210.6708839
15063,56169517.475504756
15185,0.0
15305,103336902.43456222
15317,80509850.37498963
2,1, 7,21, 0,19, 0.00,60.00,SummerDesignDay
9,593770093.0140957
14429,0.0
14637,0.0
14711,286.62340413895265
14875,44635391.51838346
15063,56173797.0589471
15185,0.0
15305,44162758.779809125
15317,23247339.621761218
2,1, 7,21, 0,20, 0.00,60.00,SummerDesignDay
9,379976853.332684
14429,0.0
14637,0.0
14711,0.0
14875,2665394.2778972033
15063,361456.8600632809
15185,0.0
15305,23572601.507562615
15317,4327832.1295936415
2,1, 7,21, 0,21, 0.00,60.00,SummerDesignDay
9,59813426.118095286
14429,0.0
14637,0.0
14711,0.0
14875,2425815.416678378
15063,320531.4371563249
15185,0.0
15305,23038088.77139959
15317,3793327.373850763
2,1, 7,21, 0,22, 0.00,60.00,SummerDesignDay
9,52387179.07382131
14429,0.0
14637,0.0
14711,0.0
14875,2144175.9810546003
15063,294166.5306453327
15185,0.0
15305,22539986.798596248
15317,3295289.5845195963
2,1, 7,21, 0,23, 0.00,60.00,SummerDesignDay
9,49674836.97873399
14429,0.0
14637,0.0
14711,0.0
14875,1891651.5776464343
15063,254364.59099042244
15185,0.0
15305,22262356.61583805
15317,3017688.6313731316
2,1, 7,21, 0,24, 0.00,60.00,SummerDesignDay
9,44623969.56969194
14429,0.0
14637,0.0
14711,0.0
14875,1670234.7016789503
15063,222822.00004865075
15185,0.0
15305,22032851.74308616
15317,2788223.848925859
1,EDINBURGH.AP ANN HTG 99.6% CONDNS DB HVAC Sizing Pass 1,  55.95,  -3.37,   0.00,  41.10
2,1, 1,21, 0, 1, 0.00,60.00,WinterDesignDay
9,31660012.329916555
14429,242139652.7239784
14637,106911787.85002926
14711,138077073.04905963
14875,0.0
15063,8405417.590236522
15185,0.0
15305,3281208.8857970987
15317,0.0
2,1, 1,21, 0, 2, 0.00,60.00,WinterDesignDay
9,32628065.80627711
14429,257106810.83536375
14637,109285933.38443816
14711,150903650.7132436
14875,0.0
15063,9125261.724232318
15185,0.0
15305,3529418.2281618477
15317,0.0
2,1, 1,21, 0, 3, 0.00,60.00,WinterDesignDay
9,33469139.204665266
14429,270863494.4974443
14637,111389428.79836763
14711,162865726.2324245
14875,0.0
15063,9746416.49004737
15185,0.0
15305,3749336.8607349545
15317,0.0
2,1, 1,21, 0, 4, 0.00,60.00,WinterDesignDay
9,34183460.72059047
14429,283355215.80644405
14637,113332767.82401747
14711,173783679.81219172
14875,0.0
15063,10265021.163584452
15185,0.0
15305,3945053.703123076
15317,0.0
2,1, 1,21, 0, 5, 0.00,60.00,WinterDesignDay
9,34915484.69924668
14429,295759177.2155749
14637,115224103.94251747
14711,184176271.17655927
14875,0.0
15063,10792623.930123162
15185,0.0
15305,4149474.915240574
15317,0.0
2,1, 1,21, 0, 6, 0.00,60.00,WinterDesignDay
9,35596549.02559855
14429,307082697.60959685
14637,117087971.26223537
14711,194097022.32603267
14875,0.0
15063,11286271.279692143
15185,0.0
15305,4336891.892023469
15317,0.0
2,1, 1,21, 0, 7, 0.00,60.00,WinterDesignDay
9,36358456.860147424
14429,318680773.94894123
14637,118768379.43976575
14711,203932831.78088117
14875,0.0
15063,11833375.375020195
15185,0.0
15305,4551695.631244281
15317,0.0
2,1, 1,21, 0, 8, 0.00,60.00,WinterDesignDay
9,36931758.906422034
14429,328880092.18757653
14637,120232665.01821133
14711,213094391.1534322
14875,0.0
15063,12240865.733400578
15185,0.0
15305,4717507.319138527
15317,0.0
2,1, 1,21, 0, 9, 0.00,60.00,WinterDesignDay
9,84250477.58898318
14429,1244513455.8982537
14637,323188460.78508544
14711,947546657.3278952
14875,0.0
15063,54812737.69673906
15185,0.0
15305,9464354.038361179
15317,0.0
2,1, 1,21, 0,10, 0.00,60.00,WinterDesignDay
9,68223682.30146281
14429,955236186.766056
14637,238873464.08689982
14711,721588135.1156309
14875,0.0
15063,39803975.07659726
15185,0.0
15305,8446321.370982608
15317,0.0
2,1, 1,21, 0,11, 0.00,60.00,WinterDesignDay
9,63974602.227319285
14429,874437676.1871636
14637,222467211.8607626
14711,659207646.816822
14875,0.0
15063,35770103.2909897
15185,0.0
15305,8231113.082446672
15317,0.0
2,1, 1,21, 0,12, 0.00,60.00,WinterDesignDay
9,61892152.40140425
14429,829072234.538773
14637,214615600.28144965
14711,621730710.672355
14875,0.0
15063,33908329.50019998
15185,0.0
15305,8010437.047321323
15317,0.0
2,1, 1,21, 0,13, 0.00,60.00,WinterDesignDay
9,59954027.69396844
14429,794951623.2431718
14637,209383594.61307138
14711,592991439.1241628
14875,0.0
15063,32106126.250401445
15185,0.0
15305,7874515.589684052
15317,0.0
2,1, 1,21, 0,14, 0.00,60.00,WinterDesignDay
9,58407492.61686671
14429,767482753.3057225
14637,205253367.2259935
14711,568880912.7872006
14875,0.0
15063,30635285.049302496
15185,0.0
15305,7798821.713681275
15317,0.0
2,1, 1,21, 0,15, 0.00,60.00,WinterDesignDay
9,56838847.23314883
14429,743755007.6517029
14637,201782516.8336698
14711,548611345.9644051
14875,0.0
15063,28963640.960014243
15185,0.0
15305,7901820.4192516375
15317,0.0
2,1, 1,21, 0,16, 0.00,60.00,WinterDesignDay
9,55571599.90772004
14429,722614212.4863212
14637,198758117.07098654
14711,530950658.0263007
14875,0.0
15063,27670499.32189977
15185,0.0
15305,7927714.731937325
15317,0.0
2,1, 1,21, 0,17, 0.00,60.00,WinterDesignDay
9,54498456.42791411
14429,704604405.1434522
14637,196194568.8168453
14711,515564913.35702264
14875,0.0
15063,26634632.679436408
15185,0.0
15305,7890437.894594777
15317,0.0
2,1, 1,21, 0,18, 0.00,60.00,WinterDesignDay
9,53620345.515648454
14429,688504027.3813848
14637,193989242.0762053
14711,502100417.0762706
14875,0.0
15063,25815890.46804124
15185,0.0
15305,7831069.193724264
15317,0.0
2,1, 1,21, 0,19, 0.00,60.00,WinterDesignDay
9,53090944.926248804
14429,674560787.1103294
14637,191958490.1647671
14711,490054185.9819231
14875,0.0
15063,25412056.947629638
15185,0.0
15305,7705502.124736238
15317,0.0
2,1, 1,21, 0,20, 0.00,60.00,WinterDesignDay
9,20776055.207077723
14429,16409021.226504406
14637,16526471.638576157
14711,9779582.277272187
14875,0.0
15063,643775.7924502011
15185,0.0
15305,158893.5607445822
15317,0.0
2,1, 1,21, 0,21, 0.00,60.00,WinterDesignDay
9,25466208.923981704
14429,150249006.99311697
14637,83907907.6299907
14711,60319006.74763621
14875,0.0
15063,4041472.739405962
15185,0.0
15305,1451350.3306928044
15317,0.0
2,1, 1,21, 0,22, 0.00,60.00,WinterDesignDay
9,28009561.78179564
14429,185970421.31456795
14637,93967418.9906459
14711,88778355.94176157
14875,0.0
15063,5817476.8698022235
15185,0.0
15305,2218699.0581104807
15317,0.0
2,1, 1,21, 0,23, 0.00,60.00,WinterDesignDay
9,29747537.625902753
14429,207843071.77472234
14637,100117365.87907606
14711,109531182.84743968
14875,0.0
15063,7024897.469347506
15185,0.0
15305,2749254.302672309
15317,0.0
2,1, 1,21, 0,24, 0.00,60.00,WinterDesignDay
9,30736672.28958436
14429,226112848.75601092
14637,103992497.58735394
14711,124873739.28158459
14875,0.0
15063,7728305.150338583
15185,0.0
15305,3034981.2853628388
15317,0.0
1,EDINBURGH.AP ANN HTG WIND 99.6% CONDNS WS=>MCDB HVAC Sizing Pass 1,  55.95,  -3.37,   0.00,  41.10
2,1, 1,21, 0, 1, 0.00,60.00,WinterDesignDay
9,20646465.73390479
14429,21455785.281022068
14637,17924813.4143299
14711,4468869.196534863
14875,0.0
15063,507328.5965046933
15185,0.0
15305,165751.28351716264
15317,0.0
2,1, 1,21, 0, 2, 0.00,60.00,WinterDesignDay
9,20798414.286789387
14429,25977656.45286893
14637,19890976.32375659
14711,5676622.54130122
14875,0.0
15063,623394.6374897651
15185,0.0
15305,201633.7954166836
15317,0.0
2,1, 1,21, 0, 3, 0.00,60.00,WinterDesignDay
9,20978040.473994177
14429,30587953.947014004
14637,21508382.462603595
14711,6910760.049931307
14875,0.0
15063,760241.6426686031
15185,0.0
15305,244412.97744263255
15317,0.0
2,1, 1,21, 0, 4, 0.00,60.00,WinterDesignDay
9,21302544.17678394
14429,36851771.8455352
14637,22885600.02069374
14711,8910299.438495293
14875,0.0
15063,997163.6649042317
15185,0.0
15305,331994.6579967677
15317,0.0
2,1, 1,21, 0, 5, 0.00,60.00,WinterDesignDay
9,21576942.77566099
14429,39201689.38230654
14637,24092331.910289355
14711,11007103.431782272
14875,0.0
15063,1194735.8656841116
15185,0.0
15305,408821.0560939427
15317,0.0
2,1, 1,21, 0, 6, 0.00,60.00,WinterDesignDay
9,21912053.657165367
14429,41786332.405085616
14637,25156684.01076819
14711,13420005.943395855
14875,0.0
15063,1431025.8515155443
15185,0.0
15305,507641.9517668843
15317,0.0
2,1, 1,21, 0, 7, 0.00,60.00,WinterDesignDay
9,22205911.937070448
14429,43269412.20325482
14637,26091994.28028655
14711,15784860.67436238
14875,0.0
15063,1645421.2788743605
15185,0.0
15305,587104.8043131476
15317,0.0
2,1, 1,21, 0, 8, 0.00,60.00,WinterDesignDay
9,22459292.60853757
14429,45294909.895705536
14637,26930621.79752353
14711,17992829.489122473
14875,0.0
15063,1832462.3819546208
15185,0.0
15305,653444.3727000097
15317,0.0
2,1, 1,21, 0, 9, 0.00,60.00,WinterDesignDay
9,60471459.06735647
14429,787303479.4653614
14637,199278129.83209363
14711,599402164.8728926
14875,0.0
15063,32406630.611428782
15185,0.0
15305,8091442.602044754
15317,0.0
2,1, 1,21, 0,10, 0.00,60.00,WinterDesignDay
9,48303170.8017956
14429,522816824.5148031
14637,127771979.5105598
14711,399241863.9053649
14875,0.0
15063,21260417.79725447
15185,0.0
15305,7069367.150658206
15317,0.0
2,1, 1,21, 0,11, 0.00,60.00,WinterDesignDay
9,46196278.56769835
14429,472305630.33587635
14637,116416145.84688447
14711,361821830.017823
14875,0.0
15063,19368683.022934638
15185,0.0
15305,6854209.690880789
15317,0.0
2,1, 1,21, 0,12, 0.00,60.00,WinterDesignDay
9,45069438.393776104
14429,442980434.2087488
14637,110973019.51660451
14711,337858780.14093006
14875,0.0
15063,18534435.425059028
15185,0.0
15305,6561617.114834144
15317,0.0
2,1, 1,21, 0,13, 0.00,60.00,WinterDesignDay
9,44080804.29071165
14429,421646291.3558349
14637,107301847.53431135
14711,319251068.39488876
14875,0.0
15063,17695212.11636332
15185,0.0
15305,6412206.320465383
15317,0.0
2,1, 1,21, 0,14, 0.00,60.00,WinterDesignDay
9,43140155.06728267
14429,402828456.349658
14637,104404920.33574629
14711,303825479.473639
14875,0.0
15063,16746589.786707778
15185,0.0
15305,6420179.4266919475
15317,0.0
2,1, 1,21, 0,15, 0.00,60.00,WinterDesignDay
9,42358399.247019194
14429,386670247.89288753
14637,101979775.71964937
14711,290417477.8522598
14875,0.0
15063,16042825.061988719
15185,0.0
15305,6342188.331147532
15317,0.0
2,1, 1,21, 0,16, 0.00,60.00,WinterDesignDay
9,41766165.67602357
14429,372886897.3708294
14637,99931118.27364945
14711,278576778.69082326
14875,0.0
15063,15615837.744883915
15185,0.0
15305,6176942.077256716
15317,0.0
2,1, 1,21, 0,17, 0.00,60.00,WinterDesignDay
9,41241559.0012509
14429,360894484.3105771
14637,98133862.5835753