Program Version,EnergyPlus, Version 23.2.0-7636e6b3e9, YMD=2025.10.15 16:19
1,5,Environment Title[],Latitude[deg],Longitude[deg],Time Zone[],Elevation[m]
2,8,Day of Simulation[],Month[],Day of Month[],DST Indicator[1=yes 0=no],Hour[],StartMinute[],EndMinute[],DayType
3,5,Cumulative Day of Simulation[],Month[],Day of Month[],DST Indicator[1=yes 0=no],DayType  ! When Daily Meters Requested
4,2,Cumulative Days of Simulation[],Month[]  ! When Monthly Meters Requested
5,1,Cumulative Days of Simulation[] ! When Run Period Meters Requested
6,1,Calendar Year of Simulation[] ! When Annual Meters Requested
14674,1,Baseboard:PlantLoopHeatingDemand [J] !Hourly
14724,1,HeatingCoils:PlantLoopHeatingDemand [J] !Hourly
14875,1,CoolingCoils:EnergyTransfer [J] !Hourly
14711,1,HeatingCoils:EnergyTransfer [J] !Hourly
15063,1,Electricity:HVAC [J] !Hourly
15305,1,Electricity:Plant [J] !Hourly
14637,1,Baseboard:EnergyTransfer [J] !Hourly
9,1,Electricity:Facility [J] !Hourly
14429,1,DistrictHeatingWater:Facility [J] !Hourly
15185,1,DistrictCooling:Facility [J] !Hourly
15317,1,Cooling:Electricity [J] !Hourly
End of Data Dictionary
1,EDINBURGH.AP ANN CLG .4% CONDNS DB=>MWB HVAC Sizing Pass 1,  55.95,  -3.37,   0.00,  41.10
2,1, 7,21, 0, 1, 0.00,60.00,SummerDesignDay
9,40551244.325964205
14429,0.0
14637,0.0
14674,0.0
14711,0.0
14724,0.0
14875,2041286.5681391875
15063,282835.1443789856
15185,0.0
15305,20295023.327702284
15317,2474336.87080546
2,1, 7,21, 0, 2, 0.00,60.00,SummerDesignDay
9,40431913.01268849
14429,0.0
14637,0.0
14674,0.0
14711,0.0
14724,0.0
14875,1857899.5537397037
15063,265522.88119588175
15185,0.0
15305,20193004.277609676
15317,2372364.691084983
2,1, 7,21, 0, 3, 0.00,60.00,SummerDesignDay
9,40324826.16411036
14429,0.0
14637,0.0
14674,0.0
14711,0.0
14724,0.0
14875,1690124.8564323022
15063,249079.73818177343
15185,0.0
15305,20102360.572045654
15317,2281764.580479214
2,1, 7,21, 0, 4, 0.00,60.00,SummerDesignDay
9,40248978.221195735
14429,0.0
14637,0.0
14674,0.0
14711,0.0
14724,0.0
14875,1530716.5232145328
15063,226483.88677388124
15185,0.0
15305,20049108.48053892
15317,2228540.078959965
2,1, 7,21, 0, 5, 0.00,60.00,SummerDesignDay
9,40179791.15544659
14429,1455670.3512927243
14637,6095812.597352071
14674,6095812.597352071
14711,0.0
14724,0.0
14875,1373734.1490770031
15063,197459.78061383136
15185,0.0
15305,20008945.52094983
15317,2182765.2570967646
2,1, 7,21, 0, 6, 0.00,60.00,SummerDesignDay
9,40119698.454099596
14429,2452855.288783458
14637,9267980.857085831
14674,9267980.857085831
14711,3146.498506545612
14724,3146.498506545612
14875,1212068.9705431517
15063,150233.84187667895
15185,0.0
15305,19996078.758339986
15317,2166657.0643307036
2,1, 7,21, 0, 7, 0.00,60.00,SummerDesignDay
9,60851801.66769017
14429,1474623.669215647
14637,4340043.667355558
14674,4340043.667355558
14711,16016.892594234314
14724,16016.892594234314
14875,1109987.525470419
15063,133879.13666294233
15185,0.0
15305,19944879.597911023
15317,2119283.2953502303
2,1, 7,21, 0, 8, 0.00,60.00,SummerDesignDay
9,517705039.43110824
14429,289576.57041391206
14637,0.0
14674,0.0
14711,14720.948168734067
14724,14720.948168734067
14875,1086909.2380887633
15063,131728.32610932505
15185,0.0
15305,19900959.395558916
15317,2079433.0717452304
2,1, 7,21, 0, 9, 0.00,60.00,SummerDesignDay
9,641699149.8377436
14429,10198.521558809987
14637,0.0
14674,0.0
14711,2987.23256042361
14724,2987.23256042361
14875,252005809.0826078
15063,24746212.83059748
15185,0.0
15305,116885675.32503197
15317,95045990.01083383
2,1, 7,21, 0,10, 0.00,60.00,SummerDesignDay
9,667849460.9826528
14429,0.0
14637,0.0
14674,0.0
14711,81.45421720944582
14724,81.45421720944582
14875,393564748.3498143
15063,32748233.300377373
15185,0.0
15305,122704791.3424106
15317,99081101.0661629
2,1, 7,21, 0,11, 0.00,60.00,SummerDesignDay
9,682564376.638726
14429,0.0
14637,0.0
14674,0.0
14711,0.0
14724,0.0
14875,470368905.60657954
15063,36161337.41854203
15185,0.0
15305,131565439.28156327
15317,106503110.69565244
2,1, 7,21, 0,12, 0.00,60.00,SummerDesignDay
9,709997267.6484822
14429,0.0
14637,0.0
14674,0.0
14711,0.0
14724,0.0
14875,519125446.7094593
15063,38804551.44234394
15185,0.0
15305,137950369.1609586
15317,112417140.4718654
2,1, 7,21, 0,13, 0.00,60.00,SummerDesignDay
9,707265081.9950973
14429,0.0
14637,0.0
14674,0.0
14711,0.0
14724,0.0
14875,501362580.39781916
15063,36910141.13025763
15185,0.0
15305,137112593.8196598
15317,111703863.39309919
2,1, 7,21, 0,14, 0.00,60.00,SummerDesignDay
9,710964921.0458248
14429,0.0
14637,0.0
14674,0.0
14711,0.0
14724,0.0
14875,516544302.99874914
15063,38433610.16551859
15185,0.0
15305,139288963.8351265
15317,113766514.78676984
2,1, 7,21, 0,15, 0.00,60.00,SummerDesignDay
9,721140173.9298803
14429,0.0
14637,0.0
14674,0.0
14711,0.0
14724,0.0
14875,580467127.5423603
15063,43441878.114746004
15185,0.0
15305,146850858.7426287
15317,120649941.49975598
2,1, 7,21, 0,16, 0.00,60.00,SummerDesignDay
9,698309752.9022859
14429,0.0
14637,0.0
14674,0.0
14711,0.0
14724,0.0
14875,597870815.5144095
15063,44223281.62631041
15185,0.0
15305,148874764.85413334
15317,122275826.20349562
2,1, 7,21, 0,17, 0.00,60.00,SummerDesignDay
9,716452434.640306
14429,0.0
14637,0.0
14674,0.0
14711,58.11752713351592
14724,58.11752713351592
14875,596942316.2123455
15063,44765485.247241154
15185,0.0
15305,148070495.86466333
15317,121361360.88725115
2,1, 7,21, 0,18, 0.00,60.00,SummerDesignDay
9,670313504.6076031
14429,0.0
14637,0.0
14674,0.0
14711,0.0
14724,0.0
14875,486948515.0925817
15063,37882180.312138386
15185,0.0
15305,134758972.58602473
15317,109250739.27053392
2,1, 7,21, 0,19, 0.00,60.00,SummerDesignDay
9,658758036.8856738
14429,0.0
14637,0.0
14674,0.0
14711,0.0
14724,0.0
14875,400573496.8744809
15063,34320555.1704782
15185,0.0
15305,124370220.03308122
15317,100071519.39850625
2,1, 7,21, 0,20, 0.00,60.00,SummerDesignDay
9,388715794.33212054
14429,0.0
14637,0.0
14674,0.0
14711,0.0
14724,0.0
14875,3216440.029830572
15063,497609.6161351325
15185,0.0
15305,20672422.80932796
15317,2764145.796367017
2,1, 7,21, 0,21, 0.00,60.00,SummerDesignDay
9,68960540.48103645
14429,0.0
14637,0.0
14674,0.0
14711,0.0
14724,0.0
14875,2921098.1462500924
15063,449436.0006473709
15185,0.0
15305,20553331.629250318
15317,2732553.8993716193
2,1, 7,21, 0,22, 0.00,60.00,SummerDesignDay
9,50474453.529939204
14429,0.0
14637,0.0
14674,0.0
14711,0.0
14724,0.0
14875,2669882.194833583
15063,387947.9037774011
15185,0.0
15305,20533479.881582085
15317,2712716.9022967764
2,1, 7,21, 0,23, 0.00,60.00,SummerDesignDay
9,48027407.30009277
14429,0.0
14637,0.0
14674,0.0
14711,0.0
14724,0.0
14875,2474474.1562733687
15063,320611.50765463733
15185,0.0
15305,20548680.020532627
15317,2727887.392612605
2,1, 7,21, 0,24, 0.00,60.00,SummerDesignDay
9,43081361.643380284
14429,0.0
14637,0.0
14674,0.0
14711,0.0
14724,0.0
14875,2248279.5340682305
15063,301605.0396901031
15185,0.0
15305,20411460.777133055
15317,2590722.453069013
1,EDINBURGH.AP ANN CLG .4% CONDNS DP=>MDB HVAC Sizing Pass 1,  55.95,  -3.37,   0.00,  41.10
2,1, 7,21, 0, 1, 0.00,60.00,SummerDesignDay
9,40258583.69124775
14429,0.0
14637,0.0
14674,0.0
14711,0.0
14724,0.0
14875,1505116.5496594536
15063,210309.1196309627
15185,0.0
15305,20074888.717733856
15317,2254295.536080991
2,1, 7,21, 0, 2, 0.00,60.00,SummerDesignDay
9,40165094.083140865
14429,0.0
14637,0.0
14674,0.0
14711,0.0
14724,0.0
14875,1349604.6968154395
15063,188121.95647539105
15185,0.0
15305,20003586.27278255
15317,2183022.6756832195
2,1, 7,21, 0, 3, 0.00,60.00,SummerDesignDay
9,40093197.4468172
14429,1751354.4275393188
14637,3839735.458997223
14674,3839735.458997223
14711,1141.373437269471
14724,1141.373437269471
14875,1182928.3506741025
15063,140984.61508376486
15185,0.0
15305,19978826.977850504
15317,2154624.6729343277
2,1, 7,21, 0, 4, 0.00,60.00,SummerDesignDay
9,40016361.790228486
14429,5689486.582011752
14637,11387703.002902798
14674,11387703.002902798
14711,16984.10445060051
14724,16984.10445060051
14875,1074729.6512763244
15063,130777.29149023644
15185,0.0
15305,19912198.644855317
15317,2080167.3186128866
2,1, 7,21, 0, 5, 0.00,60.00,SummerDesignDay
9,39949120.73558223
14429,8948163.652101764
14637,17058072.316687867
14674,17058072.316687867
14711,37561.52647937275
14724,37561.52647937275
14875,979575.8527943175
15063,124482.53097370644
15185,0.0
15305,19851252.35072559
15317,2013443.798662374
2,1, 7,21, 0, 6, 0.00,60.00,SummerDesignDay
9,39883771.364540316
14429,10618948.825011518
14637,19078766.39348544
14674,19078766.39348544
14711,53964.85317397372
14724,53964.85317397372
14875,888809.4495086552
15063,116964.26026435001
15185,0.0
15305,19793421.250393037
15317,1953419.39055483
2,1, 7,21, 0, 7, 0.00,60.00,SummerDesignDay
9,60614042.67077249
14429,9344745.778354859
14637,15381193.486004824
14674,15381193.486004824
14711,68113.1958219684
14724,68113.1958219684
14875,806620.7477188248
15063,108406.1662881122
15185,0.0
15305,19732593.571368165
15317,1895681.385048994
2,1, 7,21, 0, 8, 0.00,60.00,SummerDesignDay
9,517481989.8985067
14429,1719888.9830617418
14637,594770.6135360199
14674,594770.6135360199
14711,68936.38885884032
14724,68936.38885884032
14875,782917.2294606061
15063,107302.38146556284
15185,0.0
15305,19702335.807601105
15317,1878914.237631518
2,1, 7,21, 0, 9, 0.00,60.00,SummerDesignDay
9,631963216.8928452
14429,1029088.7918829286
14637,0.0
14674,0.0
14711,47207.65829060247
14724,47207.65829060247
14875,197314041.7000798
15063,20808402.394643877
15185,0.0
15305,111087552.81608711
15317,89724058.72508447
2,1, 7,21, 0,10, 0.00,60.00,SummerDesignDay
9,661357697.0816368
14429,383705.7265718017
14637,0.0
14674,0.0
14711,15385.480670410192
14724,15385.480670410192
14875,349813076.5118971
15063,29066657.978555813
15185,0.0
15305,119894602.76321642
15317,96445369.27376576
2,1, 7,21, 0,11, 0.00,60.00,SummerDesignDay
9,675933478.008478
14429,0.0
14637,0.0
14674,0.0
14711,1846.6307663668647
14724,1846.6307663668647
14875,423158762.13746077
15063,32873850.338727545
15185,0.0
15305,128222027.73112983
15317,104144955.19394863
2,1, 7,21, 0,12, 0.00,60.00,SummerDesignDay
9,703470530.5634739
14429,0.0
14637,0.0
14674,0.0
14711,0.0
14724,0.0
14875,475251828.6090005
15063,35550742.286787316
15185,0.0
15305,134677441.23150688
15317,110107924.94072552
2,1, 7,21, 0,13, 0.00,60.00,SummerDesignDay
9,700610459.9925303
14429,0.0
14637,0.0
14674,0.0
14711,0.0
14724,0.0
14875,458210925.61213887
15063,33748846.20253159
15185,0.0
15305,133619266.74481903
15317,109193854.8942385
2,1, 7,21, 0,14, 0.00,60.00,SummerDesignDay
9,704783787.6020842
14429,0.0
14637,0.0
14674,0.0
14711,0.0
14724,0.0
14875,479970764.30110455
15063,35140191.51311789
15185,0.0
15305,136401249.04378673
15317,111733170.33764349
2,1, 7,21, 0,15, 0.00,60.00,SummerDesignDay
9,715244060.5586636
14429,0.0
14637,0.0
14674,0.0
14711,0.0
14724,0.0
14875,548419692.6112132
15063,40111087.27028712
15185,0.0
15305,144285536.21587098
15317,118935605.10533723
2,1, 7,21, 0,16, 0.00,60.00,SummerDesignDay
9,692436536.1589246
14429,0.0
14637,0.0
14674,0.0
14711,72.31351237516704
14724,72.31351237516704
14875,564599697.8995287
15063,40995894.04366301
15185,0.0
15305,146228935.6934193
15317,120546271.53172664
2,1, 7,21, 0,17, 0.00,60.00,SummerDesignDay
9,710911542.8900596
14429,0.0
14637,0.0
14674,0.0
14711,508.0359133789583
14724,508.0359133789583
14875,564553287.0649709
15063,41529671.94799645
15185,0.0
15305,145765417.4136618
15317,119965012.1807133
2,1, 7,21, 0,18, 0.00,60.00,SummerDesignDay
9,664932318.9494058
14429,0.0
14637,0.0
14674,0.0
14711,106.21525305044896
14724,106.21525305044896
14875,446359218.07631135
15063,35519060.60907669
15185,0.0
15305,131740906.63088912
15317,107331580.96415156
2,1, 7,21, 0,19, 0.00,60.00,SummerDesignDay
9,655167578.0205848
14429,2724.729157120359
14637,0.0
14674,0.0
14711,6723.089722084866
14724,6723.089722084866
14875,374932791.6109826
15063,31751183.016842227
15185,0.0
15305,123349133.32162839
15317,99610927.78993094
2,1, 7,21, 0,20, 0.00,60.00,SummerDesignDay
9,388424373.8424083
14429,0.0
14637,0.0
14674,0.0
14711,0.0
14724,0.0
14875,2565934.159814718
15063,344503.3073960842
15185,0.0
15305,20534108.62835481
15317,2616225.9745427947
2,1, 7,21, 0,21, 0.00,60.00,SummerDesignDay
9,68689397.23884536
14429,0.0
14637,0.0
14674,0.0
14711,0.0
14724,0.0
14875,2360227.047547774
15063,307685.6540377384
15185,0.0
15305,20423938.733668864
15317,2603186.8199852593
2,1, 7,21, 0,22, 0.00,60.00,SummerDesignDay
9,50159780.05606152
14429,0.0
14637,0.0
14674,0.0
14711,0.0
14724,0.0
14875,2111431.1327825617
15063,284473.32420129655
15185,0.0
15305,20322280.987280507
15317,2501576.8056415264
2,1, 7,21, 0,23, 0.00,60.00,SummerDesignDay
9,47636494.03185553
14429,0.0
14637,0.0
14674,0.0
14711,0.0
14724,0.0
14875,1896481.3308512738
15063,266141.933667602
15185,0.0
15305,20212236.32628242
15317,2391584.240001122
2,1, 7,21, 0,24, 0.00,60.00,SummerDesignDay
9,42736662.80590822
14429,0.0
14637,0.0
14674,0.0
14711,0.0
14724,0.0
14875,1704930.08396568
15063,248548.35470863222
15185,0.0
15305,20119818.624642465
15317,2299215.1256456426
1,EDINBURGH.AP ANN CLG .4% CONDNS ENTH=>MDB HVAC Sizing Pass 1,  55.95,  -3.37,   0.00,  41.10
2,1, 7,21, 0, 1, 0.00,60.00,SummerDesignDay
9,40676660.15895845
14429,0.0
14637,0.0
14674,0.0
14711,0.0
14724,0.0
14875,2236526.6089391154
15063,299063.455879245
15185,0.0
15305,20404210.849196274
15317,2583479.4715469386
2,1, 7,21, 0, 2, 0.00,60.00,SummerDesignDay
9,40566642.07067723
14429,0.0
14637,0.0
14674,0.0
14711,0.0
14724,0.0
14875,2069694.2310381527
15063,283981.2021844755
15185,0.0
15305,20309275.014609825
15317,2488584.369931082
2,1, 7,21, 0, 3, 0.00,60.00,SummerDesignDay
9,40467927.054037035
14429,0.0
14637,0.0
14674,0.0
14711,0.0
14724,0.0
14875,1916138.048333092
15063,269566.9909862637
15185,0.0
15305,20224974.20916784
15317,2404321.639443265
2,1, 7,21, 0, 4, 0.00,60.00,SummerDesignDay
9,40380738.490246885
14429,0.0
14637,0.0
14674,0.0
14711,0.0
14724,0.0
14875,1770429.061332162
15063,255494.23321825123
15185,0.0
15305,20151858.4031457
15317,2331242.3551061573
2,1, 7,21, 0, 5, 0.00,60.00,SummerDesignDay
9,40294639.534853026
14429,0.0
14637,0.0
14674,0.0
14711,0.0
14724,0.0
14875,1630881.207122452
15063,241641.58179430472
15185,0.0
15305,20079612.099175792
15317,2259031.4808740066
2,1, 7,21, 0, 6, 0.00,60.00,SummerDesignDay
9,40246835.859932855
14429,0.0
14637,0.0
14674,0.0
14711,0.0
14724,0.0
14875,1486467.9152711362
15063,208071.42978596146
15185,0.0
15305,20065378.576263968
15317,2244792.8083341587
2,1, 7,21, 0, 7, 0.00,60.00,SummerDesignDay
9,60974301.689835295
14429,0.0
14637,0.0
14674,0.0
14711,0.0
14724,0.0
14875,1377016.0148268002
15063,193657.22350214046
15185,0.0
15305,20007601.53321693
15317,2187038.823916541
2,1, 7,21, 0, 8, 0.00,60.00,SummerDesignDay
9,517861846.1559329
14429,0.0
14637,0.0
14674,0.0
14711,0.0
14724,0.0
14875,1350682.9109941511
15063,177250.05745316233
15185,0.0
15305,20012244.38903975
15317,2191658.5011740914
2,1, 7,21, 0, 9, 0.00,60.00,SummerDesignDay
9,647913079.068624
14429,0.0
14637,0.0
14674,0.0
14711,6600.553789720955
14724,6600.553789720955
14875,320667875.61375725
15063,28393638.6280311
15185,0.0
15305,119452178.75847875
15317,96342315.80795836
2,1, 7,21, 0,10, 0.00,60.00,SummerDesignDay
9,678407474.2001221
14429,0.0
14637,0.0
14674,0.0
14711,499.80450018782517
14724,499.80450018782517
14875,447153365.6459999
15063,35415131.814424485
15185,0.0
15305,130595906.04583302
15317,106211270.78378773
2,1, 7,21, 0,11, 0.00,60.00,SummerDesignDay
9,691932642.0300897
14429,0.0
14637,0.0
14674,0.0
14711,0.0
14724,0.0
14875,511194395.42337394
15063,38261901.5710689
15185,0.0
15305,138833140.52040014
15317,113827747.08370912
2,1, 7,21, 0,12, 0.00,60.00,SummerDesignDay
9,718839421.235715
14429,0.0
14637,0.0
14674,0.0
14711,0.0
14724,0.0
14875,559487647.3621423
15063,40134736.50991378
15185,0.0
15305,145462337.6806216
15317,119908171.69571014
2,1, 7,21, 0,13, 0.00,60.00,SummerDesignDay
9,714581618.3238719
14429,0.0
14637,0.0
14674,0.0
14711,0.0
14724,0.0
14875,534218346.58153164
15063,37943175.05877539
15185,0.0
15305,143396096.2199167
15317,118027559.72963522
2,1, 7,21, 0,14, 0.00,60.00,SummerDesignDay
9,717458611.6016374
14429,0.0
14637,0.0
14674,0.0
14711,0.0
14724,0.0
14875,546601548.5409578
15063,39011483.757284574
15185,0.0
15305,145204780.79917315
15317,119757737.72751895
2,1, 7,21, 0,15, 0.00,60.00,SummerDesignDay
9,727375451.7513266
14429,0.0
14637,0.0
14674,0.0
14711,0.0
14724,0.0
14875,607842908.2925308
15063,43755487.10645468
15185,0.0
15305,152772527.5723663
15317,126673006.82648312
2,1, 7,21, 0,16, 0.00,60.00,SummerDesignDay
9,704272040.6602631
14429,0.0
14637,0.0
14674,0.0
14711,167.0314274025476
14724,167.0314274025476
14875,620990450.6124483
15063,44700452.93003296
15185,0.0
15305,154359881.30838776
15317,127997894.03190085
2,1, 7,21, 0,17, 0.00,60.00,SummerDesignDay
9,722595584.4282253
14429,0.0
14637,0.0
14674,0.0
14711,499.4234446958285
14724,499.4234446958285
14875,619934525.6423281
15063,45286408.202812575
15185,0.0
15305,153692722.69701144
15317,127261769.06454182
2,1, 7,21, 0,18, 0.00,60.00,SummerDesignDay
9,675675540.5434834
14429,0.0
14637,0.0
14674,0.0
14711,558.9452553536726
14724,558.9452553536726
14875,507730766.9378623
15063,38279578.55187611
15185,0.0
15305,139723610.2821673
15317,114492151.15005244
2,1, 7,21, 0,19, 0.00,60.00,SummerDesignDay
9,663909314.0519513
14429,0.0
14637,0.0
14674,0.0
14711,35.32262211442156
14724,35.32262211442156
14875,419292451.7179617
15063,35013381.64329235
15185,0.0
15305,128828670.7265448
15317,104710122.62367979
2,1, 7,21, 0,20, 0.00,60.00,SummerDesignDay
9,388899029.09652007
14429,0.0
14637,0.0
14674,0.0
14711,0.0
14724,0.0
14875,3358708.7290650965
15063,508969.59698288026
15185,0.0
15305,20844297.592879705
15317,2931751.642145769
2,1, 7,21, 0,21, 0.00,60.00,SummerDesignDay
9,69116305.13497947
14429,0.0
14637,0.0
14674,0.0
14711,0.0
14724,0.0
14875,3098757.7416370884
15063,481644.93559746665
15185,0.0
15305,20676887.348243248
15317,2856098.0271703014
2,1, 7,21, 0,22, 0.00,60.00,SummerDesignDay
9,50591252.67285384
14429,0.0
14637,0.0
14674,0.0
14711,0.0
14724,0.0
14875,2851101.8651238484
15063,429752.3412571581
15185,0.0
15305,20608474.58701697
15317,2787711.018711836
2,1, 7,21, 0,23, 0.00,60.00,SummerDesignDay
9,48150475.550506435
14429,0.0
14637,0.0
14674,0.0
14711,0.0
14724,0.0
14875,2678513.957807845
15063,361964.2810643478
15185,0.0
15305,20630395.49753658
15317,2809593.6300719194
2,1, 7,21, 0,24, 0.00,60.00,SummerDesignDay
9,43221813.056452386
14429,0.0
14637,0.0
14674,0.0
14711,0.0
14724,0.0
14875,2445283.9264722294
15063,317218.14101633854
15185,0.0
15305,20536299.088878915
15317,2715518.0947821657
1,EDINBURGH.AP ANN CLG .4% CONDNS WB=>MDB HVAC Sizing Pass 1,  55.95,  -3.37,   0.00,  41.10
2,1, 7,21, 0, 1, 0.00,60.00,SummerDesignDay
9,40461737.99247707
14429,0.0
14637,0.0
14674,0.0
14711,0.0
14724,0.0
14875,1897336.8407535471
15063,268050.807262168
15185,0.0
15305,20220301.33133197
15317,2399651.4498942876
2,1, 7,21, 0, 2, 0.00,60.00,SummerDesignDay
9,40356625.82295292
14429,0.0
14637,0.0
14674,0.0
14711,0.0
14724,0.0
14875,1724693.0549698789
15063,251613.25861952017
15185,0.0
15305,20131626.71045047
15317,2311020.829741217
2,1, 7,21, 0, 3, 0.00,60.00,SummerDesignDay
9,40270946.789185196
14429,0.0
14637,0.0
14674,0.0
14711,0.0
14724,0.0
14875,1562472.0556493143
15063,229147.11867548228
15185,0.0
15305,20068413.816626783
15317,2247835.9775920017
2,1, 7,21, 0, 4, 0.00,60.00,SummerDesignDay
9,40191842.2553316
14429,0.0
14637,0.0
14674,0.0
14711,0.0
14724,0.0
14875,1407106.8134387326
15063,200766.90461834328
15185,0.0
15305,20017689.496830326
15317,2197126.2028237367
2,1, 7,21, 0, 5, 0.00,60.00,SummerDesignDay
9,40131000.58212488
14429,479939.9734395562
14637,3241599.0559946503
14674,3241599.0559946503
14711,0.0
14724,0.0
14875,1251614.6449882966
15063,163778.12108013977
15185,0.0
15305,19993836.607161812
15317,2170273.3789058346
2,1, 7,21, 0, 6, 0.00,60.00,SummerDesignDay
9,40066889.76566534
14429,1203645.6038802075
14637,6590617.885524313
14674,6590617.885524313
14711,11728.115502141944
14724,11728.115502141944
14875,1123643.6146365919
15063,134259.87181958294
15185,0.0
15305,19959244.039962824
15317,2131717.872093262
2,1, 7,21, 0, 7, 0.00,60.00,SummerDesignDay
9,60783939.35154222
14429,715381.3544564068
14637,2711227.7995171426
14674,2711227.7995171426
14711,25405.44199614915
14724,25405.44199614915
14875,1038448.2981035814
15063,128689.61576549172
15185,0.0
15305,19882206.80266051
15317,2057807.4197931779
2,1, 7,21, 0, 8, 0.00,60.00,SummerDesignDay
9,517648233.3310447
14429,250172.30673601
14637,0.0
14674,0.0
14711,24811.75657381846
14724,24811.75657381846
14875,1015747.1982003921
15063,126734.40587735099
15185,0.0
15305,19849147.215727277
15317,2027286.2309775045
2,1, 7,21, 0, 9, 0.00,60.00,SummerDesignDay
9,641520116.0757098
14429,56521.67477774483
14637,0.0
14674,0.0
14711,11093.260862706498
14724,11093.260862706498
14875,247392276.28544727
15063,23986470.330374036
15185,0.0
15305,117466384.06322154
15317,95053345.3201537
2,1, 7,21, 0,10, 0.00,60.00,SummerDesignDay
9,669073419.9119985
14429,0.0
14637,0.0
14674,0.0
14711,3463.451007304621
14724,3463.451007304621
14875,393216594.11622685
15063,32039586.91373589
15185,0.0
15305,124637396.65839802
15317,100811379.22899672
2,1, 7,21, 0,11, 0.00,60.00,SummerDesignDay
9,684210469.9988664
14429,0.0
14637,0.0
14674,0.0
14711,0.0
14724,0.0
14875,469803343.98363644
15063,35504008.18740607
15185,0.0
15305,133868861.87283963
15317,109331801.77234595
2,1, 7,21, 0,12, 0.00,60.00,SummerDesignDay
9,712382727.2019643
14429,0.0
14637,0.0
14674,0.0
14711,0.0
14724,0.0
14875,524857512.61473286
15063,38052627.86522448
15185,0.0
15305,141087752.2915601
15317,116004341.81350559
2,1, 7,21, 0,13, 0.00,60.00,SummerDesignDay
9,709532915.2354032
14429,0.0
14637,0.0
14674,0.0
14711,0.0
14724,0.0
14875,509535949.4396138
15063,35928124.42300634
15185,0.0
15305,140362443.76721725
15317,115336966.34680608
2,1, 7,21, 0,14, 0.00,60.00,SummerDesignDay
9,713180097.4626778
14429,0.0
14637,0.0
14674,0.0
14711,0.0
14724,0.0
14875,524534296.5760493
15063,37398830.98345244
15185,0.0
15305,142538919.4340457
15317,117373160.53900276
2,1, 7,21, 0,15, 0.00,60.00,SummerDesignDay
9,723592091.6764021
14429,0.0
14637,0.0
14674,0.0
14711,0.0
14724,0.0
14875,590434931.6523381
15063,42252612.661589704
15185,0.0
15305,150492041.9423068
15317,124671098.82980207
2,1, 7,21, 0,16, 0.00,60.00,SummerDesignDay
9,700663314.2936463
14429,0.0
14637,0.0
14674,0.0
14711,40.22925976241831
14724,40.22925976241831
14875,603539721.7453974
15063,43415201.034712344
15185,0.0
15305,152036406.8370918
15317,125968671.6473763
2,1, 7,21, 0,17, 0.00,60.00,SummerDesignDay
9,718936094.8637114
14429,0.0
14637,0.0
14674,0.0
14711,417.2297545187288
14724,417.2297545187288
14875,603189875.3208277
15063,43889595.95051464
15185,0.0
15305,151430045.3847954
15317,125242164.36767583
2,1, 7,21, 0,18, 0.00,60.00,SummerDesignDay
9,671834278.8774416
14429,0.0
14637,0.0
14674,0.0
14711,716.0598892476248
14724,716.0598892476248
14875,485505441.67377543
15063,37266257.95252756
15185,0.0
15305,136895669.21547407
15317,111999931.75332338
2,1, 7,21, 0,19, 0.00,60.00,SummerDesignDay
9,660257982.351441
14429,0.0
14637,0.0
14674,0.0
14711,297.06032020593335
14724,297.06032020593335
14875,399184905.8747472
15063,33776802.630016506
15185,0.0
15305,126413918.03931004
15317,102534247.56494422
2,1, 7,21, 0,20, 0.00,60.00,SummerDesignDay
9,388721023.4882685
14429,0.0
14637,0.0
14674,0.0
14711,0.0
14724,0.0
14875,3039424.2541425144
15063,447404.8967116695
15185,0.0
15305,20727856.684899315
15317,2815766.862083433
2,1, 7,21, 0,21, 0.00,60.00,SummerDesignDay
9,68898638.41254917
14429,0.0
14637,0.0
14674,0.0
14711,0.0
14724,0.0
14875,2742507.312052443
15063,386308.2807999003
15185,0.0
15305,20554557.28061051
15317,2733786.894130794
2,1, 7,21, 0,22, 0.00,60.00,SummerDesignDay
9,50427965.89969252
14429,0.0
14637,0.0
14674,0.0
14711,0.0
14724,0.0
14875,2536739.682018756
15063,325729.0738062181
15185,0.0
15305,20549211.08130658
15317,2728418.2629347392
2,1, 7,21, 0,23, 0.00,60.00,SummerDesignDay
9,47898006.92651915
14429,0.0
14637,0.0
14674,0.0
14711,0.0
14724,0.0
14875,2300358.5113824913
15063,303748.8237120417
15185,0.0
15305,20436142.330901604
15317,2615393.4143603933
2,1, 7,21, 0,24, 0.00,60.00,SummerDesignDay
9,42974491.6228663
14429,0.0
14637,0.0
14674,0.0
14711,0.0
14724,0.0
14875,2090811.5792453077
15063,285728.5354226968
15185,0.0
15305,20320467.260886468
15317,2499769.0749513367
1,EDINBURGH.AP ANN HTG 99.6% CONDNS DB HVAC Sizing Pass 1,  55.95,  -3.37,   0.00,  41.10
2,1, 1,21, 0, 1, 0.00,60.00,WinterDesignDay
9,29784850.644447207
14429,422079536.63921237
14637,317885366.8339488
14674,317885366.8339488
14711,105263823.21629639
14724,105263823.21629639
14875,0.0
15063,6973648.7607944645
15185,0.0
15305,2837816.029769811
15317,0.0
2,1, 1,21, 0, 2, 0.00,60.00,WinterDesignDay
9,30490937.088879645
14429,434692369.61679333
14637,320231372.32519835
14674,320231372.32519835
14711,116203584.95892715
14724,116203584.95892715
14875,0.0
15063,7480595.821025771
15185,0.0
15305,3036955.413970946
15317,0.0
2,1, 1,21, 0, 3, 0.00,60.00,WinterDesignDay
9,31240491.7998475
14429,446554265.1789959
14637,322327324.4302763
14674,322327324.4302763
14711,126489094.06975931
14724,126489094.06975931
14875,0.0
15063,8033153.282228757
15185,0.0
15305,3233952.6637358107
15317,0.0
2,1, 1,21, 0, 4, 0.00,60.00,WinterDesignDay
9,32021899.123693515
14429,458517203.9295839
14637,324150433.75489324
14674,324150433.75489324
14711,136441736.0033634
14724,136441736.0033634
14875,0.0
15063,8615481.217425058
15185,0.0
15305,3433032.0523855262
15317,0.0
2,1, 1,21, 0, 5, 0.00,60.00,WinterDesignDay
9,32787772.98866016
14429,469247867.75058204
14637,325735296.297954
14674,325735296.297954
14711,146418082.72125965
14724,146418082.72125965
14875,0.0
15063,9178211.11599974
15185,0.0
15305,3636176.01877749
15317,0.0
2,1, 1,21, 0, 6, 0.00,60.00,WinterDesignDay
9,33369829.792811774
14429,479556141.0065112
14637,327563348.4540793
14674,327563348.4540793
14711,155422758.74445826
14724,155422758.74445826
14875,0.0
15063,9604465.780814804
15185,0.0
15305,3791978.1581140347
15317,0.0
2,1, 1,21, 0, 7, 0.00,60.00,WinterDesignDay
9,33981445.484225675
14429,489990909.60185313
14637,329182582.49898237
14674,329182582.49898237
14711,163940345.6204396
14724,163940345.6204396
14875,0.0
15063,10045343.773757085
15185,0.0
15305,3962715.856585647
15317,0.0
2,1, 1,21, 0, 8, 0.00,60.00,WinterDesignDay
9,34570231.12498274
14429,499323354.74560034
14637,330712396.03441286
14674,330712396.03441286
14711,172328434.7290578
14724,172328434.7290578
14875,0.0
15063,10466882.25036442
15185,0.0
15305,4129963.020735385
15317,0.0
2,1, 1,21, 0, 9, 0.00,60.00,WinterDesignDay
9,81789131.17338353
14429,1476470317.862861
14637,592913843.9966785
14674,592913843.9966785
14711,901455807.4766167
14724,901455807.4766167
14875,0.0
15063,52174659.27301986
15185,0.0
15305,9641086.046480756
15317,0.0
2,1, 1,21, 0,10, 0.00,60.00,WinterDesignDay
9,64891088.73607078
14429,1169840792.8043504
14637,511330389.19653434
14674,511330389.19653434
14711,665993033.2431941
14724,665993033.2431941
14875,0.0
15063,36350256.227168396
15185,0.0
15305,8567446.655019468
15317,0.0
2,1, 1,21, 0,11, 0.00,60.00,WinterDesignDay
9,61710071.015783116
14429,1091600950.9006915
14637,495367568.39645797
14674,495367568.39645797
14711,604811731.0271142
14724,604811731.0271142
14875,0.0
15063,33585524.34862315
15185,0.0
15305,8151160.813277045
15317,0.0
2,1, 1,21, 0,12, 0.00,60.00,WinterDesignDay
9,59187181.40766968
14429,1050046751.2523017
14637,487897023.31597596
14674,487897023.31597596
14711,569174060.8426199
14724,569174060.8426199
14875,0.0
15063,31178405.290017933
15185,0.0
15305,8035390.263768796
15317,0.0
2,1, 1,21, 0,13, 0.00,60.00,WinterDesignDay
9,56676740.428911224
14429,1017596853.8773162
14637,482627990.0567594
14674,482627990.0567594
14711,542095934.0392658
14724,542095934.0392658
14875,0.0
15063,28530944.794423185
15185,0.0
15305,8172409.780605101
15317,0.0
2,1, 1,21, 0,14, 0.00,60.00,WinterDesignDay
9,55006597.09234436
14429,989518963.2895865
14637,478626625.16375583
14674,478626625.16375583
14711,518845942.62638247
14724,518845942.62638247
14875,0.0
15063,26848521.708770152
15185,0.0
15305,8184689.529691273
15317,0.0
2,1, 1,21, 0,15, 0.00,60.00,WinterDesignDay
9,53887090.77427408
14429,965584506.2589322
14637,475279479.9186677
14674,475279479.9186677
14711,498490149.42116
14724,498490149.42116
14875,0.0
15063,25831616.05554974
15185,0.0
15305,8082088.864841411
15317,0.0
2,1, 1,21, 0,16, 0.00,60.00,WinterDesignDay
9,53075233.80262178
14429,944500572.6292418
14637,472244890.2406297
14674,472244890.2406297
14711,480672394.1207318
14724,480672394.1207318
14875,0.0
15063,25188205.839519836
15185,0.0
15305,7913642.109219021
15317,0.0
2,1, 1,21, 0,17, 0.00,60.00,WinterDesignDay
9,52389229.39304258
14429,926667228.2216353
14637,469778752.16717064
14674,469778752.16717064
14711,465171636.28213346
14724,465171636.28213346
14875,0.0
15063,24663265.745405734
15185,0.0
15305,7752577.793753905
15317,0.0
2,1, 1,21, 0,18, 0.00,60.00,WinterDesignDay
9,51636081.495287046
14429,912190921.2775856
14637,467567494.2621739
14674,467567494.2621739
14711,451914748.7499513
14724,451914748.7499513
14875,0.0
15063,23973696.28140214
15185,0.0
15305,7688999.360001958
15317,0.0
2,1, 1,21, 0,19, 0.00,60.00,WinterDesignDay
9,50895964.38982645
14429,897925821.502687
14637,465571989.711256
14674,465571989.711256
14711,440476189.63869274
14724,440476189.63869274
14875,0.0
15063,23253428.826637473
15185,0.0
15305,7669149.7093060305
15317,0.0
2,1, 1,21, 0,20, 0.00,60.00,WinterDesignDay
9,20870593.39461762
14429,115782351.84529065
14637,231098181.23035955
14674,231098181.23035955
14711,7810609.990873891
14724,7810609.990873891
14875,0.0
15063,579866.4304616877
15185,0.0
15305,317341.11027300166
15317,0.0
2,1, 1,21, 0,21, 0.00,60.00,WinterDesignDay
9,23803081.653821997
14429,408516608.6351788
14637,297551746.363059
14674,297551746.363059
14711,37090170.4012252
14724,37090170.4012252
14875,0.0